s 10.000115000 _0_ MAC  --- 0 AODV 106 [0 ffffffff 0 800] ------- [0:255 -1:255 30 0] [0x2 1 1 [1 0] [0 4]] (REQUEST)
r 10.000963384 _2_ MAC  --- 0 AODV 48 [0 ffffffff 0 800] ------- [0:255 -1:255 30 0] [0x2 1 1 [1 0] [0 4]] (REQUEST)
s 10.002264610 _2_ MAC  --- 0 AODV 106 [0 ffffffff 2 800] ------- [2:255 -1:255 29 0] [0x2 2 1 [1 0] [0 4]] (REQUEST)
r 10.003112994 _0_ MAC  --- 0 AODV 48 [0 ffffffff 2 800] ------- [2:255 -1:255 29 0] [0x2 2 1 [1 0] [0 4]] (REQUEST)
r 10.003113366 _3_ MAC  --- 0 AODV 48 [0 ffffffff 2 800] ------- [2:255 -1:255 29 0] [0x2 2 1 [1 0] [0 4]] (REQUEST)
s 10.006542984 _3_ MAC  --- 0 AODV 106 [0 ffffffff 3 800] ------- [3:255 -1:255 28 0] [0x2 3 1 [1 0] [0 4]] (REQUEST)
r 10.007391740 _2_ MAC  --- 0 AODV 48 [0 ffffffff 3 800] ------- [3:255 -1:255 28 0] [0x2 3 1 [1 0] [0 4]] (REQUEST)
r 10.007391798 _1_ MAC  --- 0 AODV 48 [0 ffffffff 3 800] ------- [3:255 -1:255 28 0] [0x2 3 1 [1 0] [0 4]] (REQUEST)
s 10.007831798 _1_ MAC  --- 0 ARP 86 [0 ffffffff 1 806] ------- [REQUEST 1/1 0/3]
r 10.008520612 _3_ MAC  --- 0 ARP 28 [0 ffffffff 1 806] ------- [REQUEST 1/1 0/3]
s 10.008815612 _3_ MAC  --- 0 RTS 44 [52e 1 3 0] 
r 10.009168426 _1_ MAC  --- 0 RTS 44 [52e 1 3 0] 
s 10.009178426 _1_ MAC  --- 0 CTS 38 [3f4 3 0 0] 
r 10.009483240 _3_ MAC  --- 0 CTS 38 [3f4 3 0 0] 
s 10.009493240 _3_ MAC  --- 0 ARP 86 [13a 1 3 806] ------- [REPLY 3/3 1/1]
r 10.010182054 _1_ MAC  --- 0 ARP 28 [13a 1 3 806] ------- [REPLY 3/3 1/1]
s 10.010192054 _1_ MAC  --- 0 ACK 38 [0 3 0 0] 
r 10.010496867 _3_ MAC  --- 0 ACK 38 [0 3 0 0] 
s 10.010566054 _1_ MAC  --- 0 RTS 44 [5ae 3 1 0] 
r 10.010918867 _3_ MAC  --- 0 RTS 44 [5ae 3 1 0] 
s 10.010928867 _3_ MAC  --- 0 CTS 38 [474 1 0 0] 
r 10.011233681 _1_ MAC  --- 0 CTS 38 [474 1 0 0] 
s 10.011243681 _1_ MAC  --- 0 AODV 102 [13a 3 1 800] ------- [1:255 0:255 30 3] [0x4 1 [1 4] 10.000000] (REPLY)
r 10.012060495 _3_ MAC  --- 0 AODV 44 [13a 3 1 800] ------- [1:255 0:255 30 3] [0x4 1 [1 4] 10.000000] (REPLY)
s 10.012070495 _3_ MAC  --- 0 ACK 38 [0 1 0 0] 
r 10.012375309 _1_ MAC  --- 0 ACK 38 [0 1 0 0] 
s 10.012464495 _3_ MAC  --- 0 ARP 86 [0 ffffffff 3 806] ------- [REQUEST 3/3 0/2]
r 10.013153251 _2_ MAC  --- 0 ARP 28 [0 ffffffff 3 806] ------- [REQUEST 3/3 0/2]
r 10.013153309 _1_ MAC  --- 0 ARP 28 [0 ffffffff 3 806] ------- [REQUEST 3/3 0/2]
s 10.013568251 _2_ MAC  --- 0 RTS 44 [52e 3 2 0] 
r 10.013921007 _3_ MAC  --- 0 RTS 44 [52e 3 2 0] 
s 10.013931007 _3_ MAC  --- 0 CTS 38 [3f4 2 0 0] 
r 10.014235763 _2_ MAC  --- 0 CTS 38 [3f4 2 0 0] 
s 10.014245763 _2_ MAC  --- 0 ARP 86 [13a 3 2 806] ------- [REPLY 2/2 3/3]
r 10.014934518 _3_ MAC  --- 0 ARP 28 [13a 3 2 806] ------- [REPLY 2/2 3/3]
s 10.014944518 _3_ MAC  --- 0 ACK 38 [0 2 0 0] 
r 10.015249274 _2_ MAC  --- 0 ACK 38 [0 2 0 0] 
s 10.015538518 _3_ MAC  --- 0 RTS 44 [5ae 2 3 0] 
r 10.015891274 _2_ MAC  --- 0 RTS 44 [5ae 2 3 0] 
s 10.015901274 _2_ MAC  --- 0 CTS 38 [474 3 0 0] 
r 10.016206030 _3_ MAC  --- 0 CTS 38 [474 3 0 0] 
s 10.016216030 _3_ MAC  --- 0 AODV 102 [13a 2 3 800] ------- [1:255 0:255 29 2] [0x4 2 [1 4] 10.000000] (REPLY)
r 10.017032785 _2_ MAC  --- 0 AODV 44 [13a 2 3 800] ------- [1:255 0:255 29 2] [0x4 2 [1 4] 10.000000] (REPLY)
s 10.017042785 _2_ MAC  --- 0 ACK 38 [0 3 0 0] 
r 10.017347541 _3_ MAC  --- 0 ACK 38 [0 3 0 0] 
s 10.017876785 _2_ MAC  --- 0 ARP 86 [0 ffffffff 2 806] ------- [REQUEST 2/2 0/0]
r 10.018565169 _0_ MAC  --- 0 ARP 28 [0 ffffffff 2 806] ------- [REQUEST 2/2 0/0]
r 10.018565541 _3_ MAC  --- 0 ARP 28 [0 ffffffff 2 806] ------- [REQUEST 2/2 0/0]
s 10.018820169 _0_ MAC  --- 0 RTS 44 [52e 2 0 0] 
r 10.019172553 _2_ MAC  --- 0 RTS 44 [52e 2 0 0] 
s 10.019182553 _2_ MAC  --- 0 CTS 38 [3f4 0 0 0] 
r 10.019486936 _0_ MAC  --- 0 CTS 38 [3f4 0 0 0] 
s 10.019496936 _0_ MAC  --- 0 ARP 86 [13a 2 0 806] ------- [REPLY 0/0 2/2]
r 10.020185320 _2_ MAC  --- 0 ARP 28 [13a 2 0 806] ------- [REPLY 0/0 2/2]
s 10.020195320 _2_ MAC  --- 0 ACK 38 [0 0 0 0] 
r 10.020499704 _0_ MAC  --- 0 ACK 38 [0 0 0 0] 
s 10.020669320 _2_ MAC  --- 0 RTS 44 [5ae 0 2 0] 
r 10.021021704 _0_ MAC  --- 0 RTS 44 [5ae 0 2 0] 
s 10.021031704 _0_ MAC  --- 0 CTS 38 [474 2 0 0] 
r 10.021336088 _2_ MAC  --- 0 CTS 38 [474 2 0 0] 
s 10.021346088 _2_ MAC  --- 0 AODV 102 [13a 0 2 800] ------- [1:255 0:255 28 0] [0x4 3 [1 4] 10.000000] (REPLY)
r 10.022162471 _0_ MAC  --- 0 AODV 44 [13a 0 2 800] ------- [1:255 0:255 28 0] [0x4 3 [1 4] 10.000000] (REPLY)
s 10.022172471 _0_ MAC  --- 0 ACK 38 [0 2 0 0] 
r 10.022476855 _2_ MAC  --- 0 ACK 38 [0 2 0 0] 
s 10.022626471 _0_ MAC  --- 0 RTS 44 [58e 2 0 0] 
r 10.022978855 _2_ MAC  --- 0 RTS 44 [58e 2 0 0] 
s 10.022988855 _2_ MAC  --- 0 CTS 38 [454 0 0 0] 
r 10.023293239 _0_ MAC  --- 0 CTS 38 [454 0 0 0] 
s 10.023303239 _0_ MAC  --- 0 tcp 98 [13a 2 0 800] ------- [0:0 1:0 30 2] [0 0] 0 0
r 10.024087622 _2_ MAC  --- 0 tcp 40 [13a 2 0 800] ------- [0:0 1:0 30 2] [0 0] 1 0
s 10.024097622 _2_ MAC  --- 0 ACK 38 [0 0 0 0] 
r 10.024402006 _0_ MAC  --- 0 ACK 38 [0 0 0 0] 
s 10.024691622 _2_ MAC  --- 0 RTS 44 [58e 3 2 0] 
r 10.025044378 _3_ MAC  --- 0 RTS 44 [58e 3 2 0] 
s 10.025054378 _3_ MAC  --- 0 CTS 38 [454 2 0 0] 
r 10.025359134 _2_ MAC  --- 0 CTS 38 [454 2 0 0] 
s 10.025369134 _2_ MAC  --- 0 tcp 98 [13a 3 2 800] ------- [0:0 1:0 29 3] [0 0] 1 0
r 10.026153890 _3_ MAC  --- 0 tcp 40 [13a 3 2 800] ------- [0:0 1:0 29 3] [0 0] 2 0
s 10.026163890 _3_ MAC  --- 0 ACK 38 [0 2 0 0] 
r 10.026468645 _2_ MAC  --- 0 ACK 38 [0 2 0 0] 
s 10.026697890 _3_ MAC  --- 0 RTS 44 [58e 1 3 0] 
r 10.027050703 _1_ MAC  --- 0 RTS 44 [58e 1 3 0] 
s 10.027060703 _1_ MAC  --- 0 CTS 38 [454 3 0 0] 
r 10.027365517 _3_ MAC  --- 0 CTS 38 [454 3 0 0] 
s 10.027375517 _3_ MAC  --- 0 tcp 98 [13a 1 3 800] ------- [0:0 1:0 28 1] [0 0] 2 0
r 10.028160331 _1_ MAC  --- 0 tcp 40 [13a 1 3 800] ------- [0:0 1:0 28 1] [0 0] 3 0
s 10.028170331 _1_ MAC  --- 0 ACK 38 [0 3 0 0] 
r 10.028475145 _3_ MAC  --- 0 ACK 38 [0 3 0 0] 
s 10.028924331 _1_ MAC  --- 0 RTS 44 [58e 3 1 0] 
r 10.029277145 _3_ MAC  --- 0 RTS 44 [58e 3 1 0] 
s 10.029287145 _3_ MAC  --- 0 CTS 38 [454 1 0 0] 
r 10.029591959 _1_ MAC  --- 0 CTS 38 [454 1 0 0] 
s 10.029601959 _1_ MAC  --- 1 ack 98 [13a 3 1 800] ------- [1:0 0:0 30 3] [0 0] 0 0
r 10.030386773 _3_ MAC  --- 1 ack 40 [13a 3 1 800] ------- [1:0 0:0 30 3] [0 0] 1 0
s 10.030396773 _3_ MAC  --- 0 ACK 38 [0 1 0 0] 
r 10.030701587 _1_ MAC  --- 0 ACK 38 [0 1 0 0] 
s 10.030890773 _3_ MAC  --- 0 RTS 44 [58e 2 3 0] 
r 10.031243529 _2_ MAC  --- 0 RTS 44 [58e 2 3 0] 
s 10.031253529 _2_ MAC  --- 0 CTS 38 [454 3 0 0] 
r 10.031558285 _3_ MAC  --- 0 CTS 38 [454 3 0 0] 
s 10.031568285 _3_ MAC  --- 1 ack 98 [13a 2 3 800] ------- [1:0 0:0 29 2] [0 0] 1 0
r 10.032353040 _2_ MAC  --- 1 ack 40 [13a 2 3 800] ------- [1:0 0:0 29 2] [0 0] 2 0
s 10.032363040 _2_ MAC  --- 0 ACK 38 [0 3 0 0] 
r 10.032667796 _3_ MAC  --- 0 ACK 38 [0 3 0 0] 
s 10.033017040 _2_ MAC  --- 0 RTS 44 [58e 0 2 0] 
r 10.033369424 _0_ MAC  --- 0 RTS 44 [58e 0 2 0] 
s 10.033379424 _0_ MAC  --- 0 CTS 38 [454 2 0 0] 
r 10.033683808 _2_ MAC  --- 0 CTS 38 [454 2 0 0] 
s 10.033693808 _2_ MAC  --- 1 ack 98 [13a 0 2 800] ------- [1:0 0:0 28 0] [0 0] 2 0
r 10.034478191 _0_ MAC  --- 1 ack 40 [13a 0 2 800] ------- [1:0 0:0 28 0] [0 0] 3 0
s 10.034488191 _0_ MAC  --- 0 ACK 38 [0 2 0 0] 
r 10.034792575 _2_ MAC  --- 0 ACK 38 [0 2 0 0] 
s 10.035142191 _0_ MAC  --- 0 RTS 44 [24ce 2 0 0] 
r 10.035494575 _2_ MAC  --- 0 RTS 44 [24ce 2 0 0] 
s 10.035504575 _2_ MAC  --- 0 CTS 38 [2394 0 0 0] 
r 10.035808959 _0_ MAC  --- 0 CTS 38 [2394 0 0 0] 
s 10.035818959 _0_ MAC  --- 2 tcp 1098 [13a 2 0 800] ------- [0:0 1:0 30 2] [1 0] 0 0
r 10.044603342 _2_ MAC  --- 2 tcp 1040 [13a 2 0 800] ------- [0:0 1:0 30 2] [1 0] 1 0
s 10.044613342 _2_ MAC  --- 0 ACK 38 [0 0 0 0] 
r 10.044917726 _0_ MAC  --- 0 ACK 38 [0 0 0 0] 
s 10.045047342 _2_ MAC  --- 0 RTS 44 [24ce 3 2 0] 
r 10.045400098 _3_ MAC  --- 0 RTS 44 [24ce 3 2 0] 
s 10.045410098 _3_ MAC  --- 0 CTS 38 [2394 2 0 0] 
r 10.045714854 _2_ MAC  --- 0 CTS 38 [2394 2 0 0] 
s 10.045724854 _2_ MAC  --- 2 tcp 1098 [13a 3 2 800] ------- [0:0 1:0 29 3] [1 0] 1 0
r 10.054509610 _3_ MAC  --- 2 tcp 1040 [13a 3 2 800] ------- [0:0 1:0 29 3] [1 0] 2 0
s 10.054519610 _3_ MAC  --- 0 ACK 38 [0 2 0 0] 
r 10.054824365 _2_ MAC  --- 0 ACK 38 [0 2 0 0] 
s 10.054953610 _3_ MAC  --- 0 RTS 44 [24ce 1 3 0] 
r 10.055306424 _1_ MAC  --- 0 RTS 44 [24ce 1 3 0] 
s 10.055316424 _1_ MAC  --- 0 CTS 38 [2394 3 0 0] 
r 10.055621238 _3_ MAC  --- 0 CTS 38 [2394 3 0 0] 
s 10.055631238 _3_ MAC  --- 2 tcp 1098 [13a 1 3 800] ------- [0:0 1:0 28 1] [1 0] 2 0
r 10.064416051 _1_ MAC  --- 2 tcp 1040 [13a 1 3 800] ------- [0:0 1:0 28 1] [1 0] 3 0
s 10.064426051 _1_ MAC  --- 0 ACK 38 [0 3 0 0] 
r 10.064730865 _3_ MAC  --- 0 ACK 38 [0 3 0 0] 
s 10.064890369 _0_ MAC  --- 0 RTS 44 [24ce 2 0 0] 
s 10.064980051 _1_ MAC  --- 0 RTS 44 [58e 3 1 0] 
r 10.065242753 _2_ MAC  --- 0 RTS 44 [24ce 2 0 0] 
D 10.065332865 _3_ MAC  COL 0 RTS 44 [58e 3 1 0] 
s 10.065980051 _1_ MAC  --- 0 RTS 44 [58e 3 1 0] 
s 10.066170369 _0_ MAC  --- 0 RTS 44 [24ce 2 0 0] 
D 10.066171501 _3_ MAC  COL 0 RTS 44 [58e 3 1 0] 
D 10.066522753 _2_ MAC  COL 0 RTS 44 [24ce 2 0 0] 
s 10.067830369 _0_ MAC  --- 0 RTS 44 [24ce 2 0 0] 
r 10.068182753 _2_ MAC  --- 0 RTS 44 [24ce 2 0 0] 
s 10.068192753 _2_ MAC  --- 0 CTS 38 [2394 0 0 0] 
r 10.068497137 _0_ MAC  --- 0 CTS 38 [2394 0 0 0] 
s 10.068507137 _0_ MAC  --- 3 tcp 1098 [13a 2 0 800] ------- [0:0 1:0 30 2] [2 0] 0 0
s 10.068952237 _1_ MAC  --- 0 RTS 44 [58e 3 1 0] 
D 10.068953051 _3_ MAC  COL 0 RTS 44 [58e 3 1 0] 
s 10.074712237 _1_ MAC  --- 0 RTS 44 [58e 3 1 0] 
D 10.074713051 _3_ MAC  COL 0 RTS 44 [58e 3 1 0] 
s 10.077172237 _1_ MAC  --- 0 RTS 44 [58e 3 1 0] 
r 10.077291520 _2_ MAC  --- 3 tcp 1040 [13a 2 0 800] ------- [0:0 1:0 30 2] [2 0] 1 0
s 10.077301520 _2_ MAC  --- 0 ACK 38 [0 0 0 0] 
D 10.077302276 _3_ MAC  COL 0 RTS 44 [58e 3 1 0] 
r 10.077605904 _0_ MAC  --- 0 ACK 38 [0 0 0 0] 
s 10.078279722 _2_ MAC  --- 0 RTS 44 [24ce 3 2 0] 
r 10.078632477 _3_ MAC  --- 0 RTS 44 [24ce 3 2 0] 
s 10.078642477 _3_ MAC  --- 0 CTS 38 [2394 2 0 0] 
r 10.078947233 _2_ MAC  --- 0 CTS 38 [2394 2 0 0] 
s 10.078957233 _2_ MAC  --- 3 tcp 1098 [13a 3 2 800] ------- [0:0 1:0 29 3] [2 0] 1 0
r 10.087741989 _3_ MAC  --- 3 tcp 1040 [13a 3 2 800] ------- [0:0 1:0 29 3] [2 0] 2 0
s 10.087751989 _3_ MAC  --- 0 ACK 38 [0 2 0 0] 
r 10.088056745 _2_ MAC  --- 0 ACK 38 [0 2 0 0] 
s 10.088285989 _3_ MAC  --- 0 RTS 44 [24ce 1 3 0] 
r 10.088638803 _1_ MAC  --- 0 RTS 44 [24ce 1 3 0] 
s 10.088648803 _1_ MAC  --- 0 CTS 38 [2394 3 0 0] 
r 10.088953617 _3_ MAC  --- 0 CTS 38 [2394 3 0 0] 
s 10.088963617 _3_ MAC  --- 3 tcp 1098 [13a 1 3 800] ------- [0:0 1:0 28 1] [2 0] 2 0
r 10.097748431 _1_ MAC  --- 3 tcp 1040 [13a 1 3 800] ------- [0:0 1:0 28 1] [2 0] 3 0
s 10.097758431 _1_ MAC  --- 0 ACK 38 [0 3 0 0] 
r 10.098063245 _3_ MAC  --- 0 ACK 38 [0 3 0 0] 
s 10.099872431 _1_ MAC  --- 0 RTS 44 [58e 3 1 0] 
r 10.100225245 _3_ MAC  --- 0 RTS 44 [58e 3 1 0] 
s 10.100235245 _3_ MAC  --- 0 CTS 38 [454 1 0 0] 
r 10.100540059 _1_ MAC  --- 0 CTS 38 [454 1 0 0] 
s 10.100550059 _1_ MAC  --- 4 ack 98 [13a 3 1 800] ------- [1:0 0:0 30 3] [1 0] 0 0
r 10.101334873 _3_ MAC  --- 4 ack 40 [13a 3 1 800] ------- [1:0 0:0 30 3] [1 0] 1 0
s 10.101344873 _3_ MAC  --- 0 ACK 38 [0 1 0 0] 
r 10.101649686 _1_ MAC  --- 0 ACK 38 [0 1 0 0] 
s 10.101698873 _3_ MAC  --- 0 RTS 44 [58e 2 3 0] 
r 10.102051628 _2_ MAC  --- 0 RTS 44 [58e 2 3 0] 
s 10.102061628 _2_ MAC  --- 0 CTS 38 [454 3 0 0] 
r 10.102366384 _3_ MAC  --- 0 CTS 38 [454 3 0 0] 
s 10.102376384 _3_ MAC  --- 4 ack 98 [13a 2 3 800] ------- [1:0 0:0 29 2] [1 0] 1 0
r 10.103161140 _2_ MAC  --- 4 ack 40 [13a 2 3 800] ------- [1:0 0:0 29 2] [1 0] 2 0
s 10.103171140 _2_ MAC  --- 0 ACK 38 [0 3 0 0] 
r 10.103475895 _3_ MAC  --- 0 ACK 38 [0 3 0 0] 
s 10.103845140 _2_ MAC  --- 0 RTS 44 [58e 0 2 0] 
r 10.104197523 _0_ MAC  --- 0 RTS 44 [58e 0 2 0] 
s 10.104207523 _0_ MAC  --- 0 CTS 38 [454 2 0 0] 
r 10.104511907 _2_ MAC  --- 0 CTS 38 [454 2 0 0] 
s 10.104521907 _2_ MAC  --- 4 ack 98 [13a 0 2 800] ------- [1:0 0:0 28 0] [1 0] 2 0
r 10.105306291 _0_ MAC  --- 4 ack 40 [13a 0 2 800] ------- [1:0 0:0 28 0] [1 0] 3 0
s 10.105316291 _0_ MAC  --- 0 ACK 38 [0 2 0 0] 
r 10.105620674 _2_ MAC  --- 0 ACK 38 [0 2 0 0] 
s 10.105890291 _0_ MAC  --- 0 RTS 44 [24ce 2 0 0] 
s 10.105941392 _1_ MAC  --- 0 RTS 44 [58e 3 1 0] 
r 10.106242674 _2_ MAC  --- 0 RTS 44 [24ce 2 0 0] 
D 10.106294206 _3_ MAC  COL 0 RTS 44 [58e 3 1 0] 
s 10.106761392 _1_ MAC  --- 0 RTS 44 [58e 3 1 0] 
s 10.106990291 _0_ MAC  --- 0 RTS 44 [24ce 2 0 0] 
D 10.106991422 _3_ MAC  COL 0 RTS 44 [58e 3 1 0] 
D 10.107342674 _2_ MAC  COL 0 RTS 44 [24ce 2 0 0] 
s 10.107881392 _1_ MAC  --- 0 RTS 44 [58e 3 1 0] 
r 10.108234206 _3_ MAC  --- 0 RTS 44 [58e 3 1 0] 
s 10.108244206 _3_ MAC  --- 0 CTS 38 [454 1 0 0] 
r 10.108549019 _1_ MAC  --- 0 CTS 38 [454 1 0 0] 
s 10.108559019 _1_ MAC  --- 5 ack 98 [13a 3 1 800] ------- [1:0 0:0 30 3] [2 0] 0 0
r 10.109343833 _3_ MAC  --- 5 ack 40 [13a 3 1 800] ------- [1:0 0:0 30 3] [2 0] 1 0
s 10.109353833 _3_ MAC  --- 0 ACK 38 [0 1 0 0] 
r 10.109658647 _1_ MAC  --- 0 ACK 38 [0 1 0 0] 
s 10.109987833 _3_ MAC  --- 0 RTS 44 [58e 2 3 0] 
r 10.110340589 _2_ MAC  --- 0 RTS 44 [58e 2 3 0] 
s 10.110350589 _2_ MAC  --- 0 CTS 38 [454 3 0 0] 
r 10.110655345 _3_ MAC  --- 0 CTS 38 [454 3 0 0] 
s 10.110665345 _3_ MAC  --- 5 ack 98 [13a 2 3 800] ------- [1:0 0:0 29 2] [2 0] 1 0
r 10.111450101 _2_ MAC  --- 5 ack 40 [13a 2 3 800] ------- [1:0 0:0 29 2] [2 0] 2 0
s 10.111460101 _2_ MAC  --- 0 ACK 38 [0 3 0 0] 
r 10.111764856 _3_ MAC  --- 0 ACK 38 [0 3 0 0] 
s 10.112294101 _2_ MAC  --- 0 RTS 44 [58e 0 2 0] 
r 10.112646484 _0_ MAC  --- 0 RTS 44 [58e 0 2 0] 
s 10.112656484 _0_ MAC  --- 0 CTS 38 [454 2 0 0] 
r 10.112960868 _2_ MAC  --- 0 CTS 38 [454 2 0 0] 
s 10.112970868 _2_ MAC  --- 5 ack 98 [13a 0 2 800] ------- [1:0 0:0 28 0] [2 0] 2 0
r 10.113755252 _0_ MAC  --- 5 ack 40 [13a 0 2 800] ------- [1:0 0:0 28 0] [2 0] 3 0
s 10.113765252 _0_ MAC  --- 0 ACK 38 [0 2 0 0] 
r 10.114069635 _2_ MAC  --- 0 ACK 38 [0 2 0 0] 
s 10.115279252 _0_ MAC  --- 0 RTS 44 [24ce 2 0 0] 
r 10.115631635 _2_ MAC  --- 0 RTS 44 [24ce 2 0 0] 
s 10.115641635 _2_ MAC  --- 0 CTS 38 [2394 0 0 0] 
r 10.115946019 _0_ MAC  --- 0 CTS 38 [2394 0 0 0] 
s 10.115956019 _0_ MAC  --- 6 tcp 1098 [13a 2 0 800] ------- [0:0 1:0 30 2] [3 0] 0 0
r 10.124740403 _2_ MAC  --- 6 tcp 1040 [13a 2 0 800] ------- [0:0 1:0 30 2] [3 0] 1 0
s 10.124750403 _2_ MAC  --- 0 ACK 38 [0 0 0 0] 
r 10.125054786 _0_ MAC  --- 0 ACK 38 [0 0 0 0] 
s 10.125144786 _0_ MAC  --- 0 RTS 44 [24ce 2 0 0] 
r 10.125497170 _2_ MAC  --- 0 RTS 44 [24ce 2 0 0] 
s 10.125507170 _2_ MAC  --- 0 CTS 38 [2394 0 0 0] 
r 10.125811554 _0_ MAC  --- 0 CTS 38 [2394 0 0 0] 
s 10.125821554 _0_ MAC  --- 7 tcp 1098 [13a 2 0 800] ------- [0:0 1:0 30 2] [4 0] 0 0
r 10.134605937 _2_ MAC  --- 7 tcp 1040 [13a 2 0 800] ------- [0:0 1:0 30 2] [4 0] 1 0
s 10.134615937 _2_ MAC  --- 0 ACK 38 [0 0 0 0] 
r 10.134920321 _0_ MAC  --- 0 ACK 38 [0 0 0 0] 
s 10.135229937 _2_ MAC  --- 0 RTS 44 [24ce 3 2 0] 
r 10.135582693 _3_ MAC  --- 0 RTS 44 [24ce 3 2 0] 
s 10.135592693 _3_ MAC  --- 0 CTS 38 [2394 2 0 0] 
r 10.135897449 _2_ MAC  --- 0 CTS 38 [2394 2 0 0] 
s 10.135907449 _2_ MAC  --- 6 tcp 1098 [13a 3 2 800] ------- [0:0 1:0 29 3] [3 0] 1 0
r 10.144692205 _3_ MAC  --- 6 tcp 1040 [13a 3 2 800] ------- [0:0 1:0 29 3] [3 0] 2 0
s 10.144702205 _3_ MAC  --- 0 ACK 38 [0 2 0 0] 
r 10.145006960 _2_ MAC  --- 0 ACK 38 [0 2 0 0] 
s 10.145176205 _3_ MAC  --- 0 RTS 44 [24ce 1 3 0] 
r 10.145529019 _1_ MAC  --- 0 RTS 44 [24ce 1 3 0] 
s 10.145539019 _1_ MAC  --- 0 CTS 38 [2394 3 0 0] 
r 10.145843833 _3_ MAC  --- 0 CTS 38 [2394 3 0 0] 
s 10.145853833 _3_ MAC  --- 6 tcp 1098 [13a 1 3 800] ------- [0:0 1:0 28 1] [3 0] 2 0
r 10.154638646 _1_ MAC  --- 6 tcp 1040 [13a 1 3 800] ------- [0:0 1:0 28 1] [3 0] 3 0
s 10.154648646 _1_ MAC  --- 0 ACK 38 [0 3 0 0] 
r 10.154953460 _3_ MAC  --- 0 ACK 38 [0 3 0 0] 
s 10.155102646 _1_ MAC  --- 0 RTS 44 [58e 3 1 0] 
s 10.155252964 _0_ MAC  --- 0 RTS 44 [24ce 2 0 0] 
D 10.155254096 _3_ MAC  COL 0 RTS 44 [58e 3 1 0] 
D 10.155605348 _2_ MAC  COL 0 RTS 44 [24ce 2 0 0] 
s 10.155902646 _1_ MAC  --- 0 RTS 44 [58e 3 1 0] 
r 10.156255460 _3_ MAC  --- 0 RTS 44 [58e 3 1 0] 
s 10.156265460 _3_ MAC  --- 0 CTS 38 [454 1 0 0] 
r 10.156570274 _1_ MAC  --- 0 CTS 38 [454 1 0 0] 
s 10.156580274 _1_ MAC  --- 9 ack 98 [13a 3 1 800] ------- [1:0 0:0 30 3] [3 0] 0 0
s 10.157064592 _0_ MAC  --- 0 RTS 44 [24ce 2 0 0] 
D 10.157065724 _3_ MAC  COL 9 ack 98 [13a 3 1 800] ------- [1:0 0:0 30 3] [3 0] 0 0
D 10.157416976 _2_ MAC  COL 0 RTS 44 [24ce 2 0 0] 
s 10.157910976 _2_ MAC  --- 0 RTS 44 [24ce 3 2 0] 
r 10.158263731 _3_ MAC  --- 0 RTS 44 [24ce 3 2 0] 
s 10.158273731 _3_ MAC  --- 0 CTS 38 [2394 2 0 0] 
r 10.158578487 _2_ MAC  --- 0 CTS 38 [2394 2 0 0] 
s 10.158588487 _2_ MAC  --- 7 tcp 1098 [13a 3 2 800] ------- [0:0 1:0 29 3] [4 0] 1 0
r 10.167373243 _3_ MAC  --- 7 tcp 1040 [13a 3 2 800] ------- [0:0 1:0 29 3] [4 0] 2 0
s 10.167383243 _3_ MAC  --- 0 ACK 38 [0 2 0 0] 
r 10.167687999 _2_ MAC  --- 0 ACK 38 [0 2 0 0] 
s 10.168337243 _3_ MAC  --- 0 RTS 44 [24ce 1 3 0] 
r 10.168690057 _1_ MAC  --- 0 RTS 44 [24ce 1 3 0] 
s 10.168700057 _1_ MAC  --- 0 CTS 38 [2394 3 0 0] 
r 10.169004871 _3_ MAC  --- 0 CTS 38 [2394 3 0 0] 
s 10.169014871 _3_ MAC  --- 7 tcp 1098 [13a 1 3 800] ------- [0:0 1:0 28 1] [4 0] 2 0
r 10.177799685 _1_ MAC  --- 7 tcp 1040 [13a 1 3 800] ------- [0:0 1:0 28 1] [4 0] 3 0
s 10.177809685 _1_ MAC  --- 0 ACK 38 [0 3 0 0] 
r 10.178114499 _3_ MAC  --- 0 ACK 38 [0 3 0 0] 
s 10.178714002 _0_ MAC  --- 0 RTS 44 [24ce 2 0 0] 
r 10.179066386 _2_ MAC  --- 0 RTS 44 [24ce 2 0 0] 
s 10.179076386 _2_ MAC  --- 0 CTS 38 [2394 0 0 0] 
r 10.179380770 _0_ MAC  --- 0 CTS 38 [2394 0 0 0] 
s 10.179390770 _0_ MAC  --- 8 tcp 1098 [13a 2 0 800] ------- [0:0 1:0 30 2] [5 0] 0 0
s 10.180095871 _1_ MAC  --- 0 RTS 44 [58e 3 1 0] 
D 10.180096684 _3_ MAC  COL 0 RTS 44 [58e 3 1 0] 
s 10.183415871 _1_ MAC  --- 0 RTS 44 [58e 3 1 0] 
D 10.183416684 _3_ MAC  COL 0 RTS 44 [58e 3 1 0] 
r 10.188175153 _2_ MAC  --- 8 tcp 1040 [13a 2 0 800] ------- [0:0 1:0 30 2] [5 0] 1 0
s 10.188185153 _2_ MAC  --- 0 ACK 38 [0 0 0 0] 
r 10.188489537 _0_ MAC  --- 0 ACK 38 [0 0 0 0] 
s 10.189139153 _2_ MAC  --- 0 RTS 44 [24ce 3 2 0] 
r 10.189491909 _3_ MAC  --- 0 RTS 44 [24ce 3 2 0] 
s 10.189501909 _3_ MAC  --- 0 CTS 38 [2394 2 0 0] 
r 10.189806665 _2_ MAC  --- 0 CTS 38 [2394 2 0 0] 
s 10.189816665 _2_ MAC  --- 8 tcp 1098 [13a 3 2 800] ------- [0:0 1:0 29 3] [5 0] 1 0
r 10.198601421 _3_ MAC  --- 8 tcp 1040 [13a 3 2 800] ------- [0:0 1:0 29 3] [5 0] 2 0
s 10.198611421 _3_ MAC  --- 0 ACK 38 [0 2 0 0] 
r 10.198916176 _2_ MAC  --- 0 ACK 38 [0 2 0 0] 
s 10.199505421 _3_ MAC  --- 0 RTS 44 [24ce 1 3 0] 
r 10.199858235 _1_ MAC  --- 0 RTS 44 [24ce 1 3 0] 
s 10.199868235 _1_ MAC  --- 0 CTS 38 [2394 3 0 0] 
r 10.200173049 _3_ MAC  --- 0 CTS 38 [2394 3 0 0] 
s 10.200183049 _3_ MAC  --- 8 tcp 1098 [13a 1 3 800] ------- [0:0 1:0 28 1] [5 0] 2 0
r 10.208967862 _1_ MAC  --- 8 tcp 1040 [13a 1 3 800] ------- [0:0 1:0 28 1] [5 0] 3 0
s 10.208977862 _1_ MAC  --- 0 ACK 38 [0 3 0 0] 
r 10.209282676 _3_ MAC  --- 0 ACK 38 [0 3 0 0] 
s 10.209371862 _1_ MAC  --- 0 RTS 44 [58e 3 1 0] 
r 10.209724676 _3_ MAC  --- 0 RTS 44 [58e 3 1 0] 
s 10.209734676 _3_ MAC  --- 0 CTS 38 [454 1 0 0] 
r 10.210039490 _1_ MAC  --- 0 CTS 38 [454 1 0 0] 
s 10.210049490 _1_ MAC  --- 9 ack 98 [13a 3 1 800] ------- [1:0 0:0 30 3] [3 0] 0 0
r 10.210834304 _3_ MAC  --- 9 ack 40 [13a 3 1 800] ------- [1:0 0:0 30 3] [3 0] 1 0
s 10.210844304 _3_ MAC  --- 0 ACK 38 [0 1 0 0] 
r 10.211149118 _1_ MAC  --- 0 ACK 38 [0 1 0 0] 
s 10.211458304 _3_ MAC  --- 0 RTS 44 [58e 2 3 0] 
r 10.211811060 _2_ MAC  --- 0 RTS 44 [58e 2 3 0] 
s 10.211821060 _2_ MAC  --- 0 CTS 38 [454 3 0 0] 
r 10.212125816 _3_ MAC  --- 0 CTS 38 [454 3 0 0] 
s 10.212135816 _3_ MAC  --- 9 ack 98 [13a 2 3 800] ------- [1:0 0:0 29 2] [3 0] 1 0
r 10.212920571 _2_ MAC  --- 9 ack 40 [13a 2 3 800] ------- [1:0 0:0 29 2] [3 0] 2 0
s 10.212930571 _2_ MAC  --- 0 ACK 38 [0 3 0 0] 
r 10.213235327 _3_ MAC  --- 0 ACK 38 [0 3 0 0] 
s 10.213624571 _2_ MAC  --- 0 RTS 44 [58e 0 2 0] 
r 10.213976955 _0_ MAC  --- 0 RTS 44 [58e 0 2 0] 
s 10.213986955 _0_ MAC  --- 0 CTS 38 [454 2 0 0] 
r 10.214291339 _2_ MAC  --- 0 CTS 38 [454 2 0 0] 
s 10.214301339 _2_ MAC  --- 9 ack 98 [13a 0 2 800] ------- [1:0 0:0 28 0] [3 0] 2 0
r 10.215085723 _0_ MAC  --- 9 ack 40 [13a 0 2 800] ------- [1:0 0:0 28 0] [3 0] 3 0
s 10.215095723 _0_ MAC  --- 0 ACK 38 [0 2 0 0] 
r 10.215400106 _2_ MAC  --- 0 ACK 38 [0 2 0 0] 
s 10.215540823 _1_ MAC  --- 0 RTS 44 [58e 3 1 0] 
r 10.215893637 _3_ MAC  --- 0 RTS 44 [58e 3 1 0] 
s 10.215903637 _3_ MAC  --- 0 CTS 38 [454 1 0 0] 
r 10.216208451 _1_ MAC  --- 0 CTS 38 [454 1 0 0] 
s 10.216218451 _1_ MAC  --- 10 ack 98 [13a 3 1 800] ------- [1:0 0:0 30 3] [4 0] 0 0
r 10.217003265 _3_ MAC  --- 10 ack 40 [13a 3 1 800] ------- [1:0 0:0 30 3] [4 0] 1 0
s 10.217013265 _3_ MAC  --- 0 ACK 38 [0 1 0 0] 
r 10.217318079 _1_ MAC  --- 0 ACK 38 [0 1 0 0] 
s 10.217548079 _1_ MAC  --- 0 RTS 44 [58e 3 1 0] 
r 10.217900893 _3_ MAC  --- 0 RTS 44 [58e 3 1 0] 
s 10.217910893 _3_ MAC  --- 0 CTS 38 [454 1 0 0] 
r 10.218215707 _1_ MAC  --- 0 CTS 38 [454 1 0 0] 
s 10.218225707 _1_ MAC  --- 11 ack 98 [13a 3 1 800] ------- [1:0 0:0 30 3] [5 0] 0 0
r 10.219010521 _3_ MAC  --- 11 ack 40 [13a 3 1 800] ------- [1:0 0:0 30 3] [5 0] 1 0
s 10.219020521 _3_ MAC  --- 0 ACK 38 [0 1 0 0] 
r 10.219325335 _1_ MAC  --- 0 ACK 38 [0 1 0 0] 
s 10.219414521 _3_ MAC  --- 0 RTS 44 [58e 2 3 0] 
r 10.219767277 _2_ MAC  --- 0 RTS 44 [58e 2 3 0] 
s 10.219777277 _2_ MAC  --- 0 CTS 38 [454 3 0 0] 
r 10.220082032 _3_ MAC  --- 0 CTS 38 [454 3 0 0] 
s 10.220092032 _3_ MAC  --- 10 ack 98 [13a 2 3 800] ------- [1:0 0:0 29 2] [4 0] 1 0
r 10.220876788 _2_ MAC  --- 10 ack 40 [13a 2 3 800] ------- [1:0 0:0 29 2] [4 0] 2 0
s 10.220886788 _2_ MAC  --- 0 ACK 38 [0 3 0 0] 
r 10.221191544 _3_ MAC  --- 0 ACK 38 [0 3 0 0] 
s 10.221620788 _2_ MAC  --- 0 RTS 44 [58e 0 2 0] 
r 10.221973172 _0_ MAC  --- 0 RTS 44 [58e 0 2 0] 
s 10.221983172 _0_ MAC  --- 0 CTS 38 [454 2 0 0] 
r 10.222287555 _2_ MAC  --- 0 CTS 38 [454 2 0 0] 
s 10.222297555 _2_ MAC  --- 10 ack 98 [13a 0 2 800] ------- [1:0 0:0 28 0] [4 0] 2 0
r 10.223081939 _0_ MAC  --- 10 ack 40 [13a 0 2 800] ------- [1:0 0:0 28 0] [4 0] 3 0
s 10.223091939 _0_ MAC  --- 0 ACK 38 [0 2 0 0] 
r 10.223396323 _2_ MAC  --- 0 ACK 38 [0 2 0 0] 
s 10.223891071 _3_ MAC  --- 0 RTS 44 [58e 2 3 0] 
r 10.224243826 _2_ MAC  --- 0 RTS 44 [58e 2 3 0] 
s 10.224253826 _2_ MAC  --- 0 CTS 38 [454 3 0 0] 
r 10.224558582 _3_ MAC  --- 0 CTS 38 [454 3 0 0] 
s 10.224568582 _3_ MAC  --- 11 ack 98 [13a 2 3 800] ------- [1:0 0:0 29 2] [5 0] 1 0
r 10.225353338 _2_ MAC  --- 11 ack 40 [13a 2 3 800] ------- [1:0 0:0 29 2] [5 0] 2 0
s 10.225363338 _2_ MAC  --- 0 ACK 38 [0 3 0 0] 
r 10.225668094 _3_ MAC  --- 0 ACK 38 [0 3 0 0] 
s 10.225837338 _2_ MAC  --- 0 RTS 44 [58e 0 2 0] 
r 10.226189722 _0_ MAC  --- 0 RTS 44 [58e 0 2 0] 
s 10.226199722 _0_ MAC  --- 0 CTS 38 [454 2 0 0] 
r 10.226504105 _2_ MAC  --- 0 CTS 38 [454 2 0 0] 
s 10.226514105 _2_ MAC  --- 11 ack 98 [13a 0 2 800] ------- [1:0 0:0 28 0] [5 0] 2 0
r 10.227298489 _0_ MAC  --- 11 ack 40 [13a 0 2 800] ------- [1:0 0:0 28 0] [5 0] 3 0
s 10.227308489 _0_ MAC  --- 0 ACK 38 [0 2 0 0] 
r 10.227612873 _2_ MAC  --- 0 ACK 38 [0 2 0 0] 
s 11.000075000 _0_ MAC  --- 0 RTS 44 [24ce 2 0 0] 
r 11.000427384 _2_ MAC  --- 0 RTS 44 [24ce 2 0 0] 
s 11.000437384 _2_ MAC  --- 0 CTS 38 [2394 0 0 0] 
r 11.000741767 _0_ MAC  --- 0 CTS 38 [2394 0 0 0] 
s 11.000751767 _0_ MAC  --- 12 tcp 1098 [13a 2 0 800] ------- [0:0 1:0 30 2] [6 0] 0 0
r 11.009536151 _2_ MAC  --- 12 tcp 1040 [13a 2 0 800] ------- [0:0 1:0 30 2] [6 0] 1 0
s 11.009546151 _2_ MAC  --- 0 ACK 38 [0 0 0 0] 
r 11.009850535 _0_ MAC  --- 0 ACK 38 [0 0 0 0] 
s 11.010040151 _2_ MAC  --- 0 RTS 44 [24ce 3 2 0] 
r 11.010392907 _3_ MAC  --- 0 RTS 44 [24ce 3 2 0] 
s 11.010402907 _3_ MAC  --- 0 CTS 38 [2394 2 0 0] 
r 11.010707663 _2_ MAC  --- 0 CTS 38 [2394 2 0 0] 
s 11.010717663 _2_ MAC  --- 12 tcp 1098 [13a 3 2 800] ------- [0:0 1:0 29 3] [6 0] 1 0
r 11.019502418 _3_ MAC  --- 12 tcp 1040 [13a 3 2 800] ------- [0:0 1:0 29 3] [6 0] 2 0
s 11.019512418 _3_ MAC  --- 0 ACK 38 [0 2 0 0] 
r 11.019817174 _2_ MAC  --- 0 ACK 38 [0 2 0 0] 
s 11.020186418 _3_ MAC  --- 0 RTS 44 [24ce 1 3 0] 
r 11.020539232 _1_ MAC  --- 0 RTS 44 [24ce 1 3 0] 
s 11.020549232 _1_ MAC  --- 0 CTS 38 [2394 3 0 0] 
r 11.020854046 _3_ MAC  --- 0 CTS 38 [2394 3 0 0] 
s 11.020864046 _3_ MAC  --- 12 tcp 1098 [13a 1 3 800] ------- [0:0 1:0 28 1] [6 0] 2 0
r 11.029648860 _1_ MAC  --- 12 tcp 1040 [13a 1 3 800] ------- [0:0 1:0 28 1] [6 0] 3 0
s 11.029658860 _1_ MAC  --- 0 ACK 38 [0 3 0 0] 
r 11.029963674 _3_ MAC  --- 0 ACK 38 [0 3 0 0] 
s 11.030512860 _1_ MAC  --- 0 RTS 44 [58e 3 1 0] 
r 11.030865674 _3_ MAC  --- 0 RTS 44 [58e 3 1 0] 
s 11.030875674 _3_ MAC  --- 0 CTS 38 [454 1 0 0] 
r 11.031180488 _1_ MAC  --- 0 CTS 38 [454 1 0 0] 
s 11.031190488 _1_ MAC  --- 13 ack 98 [13a 3 1 800] ------- [1:0 0:0 30 3] [6 0] 0 0
r 11.031975302 _3_ MAC  --- 13 ack 40 [13a 3 1 800] ------- [1:0 0:0 30 3] [6 0] 1 0
s 11.031985302 _3_ MAC  --- 0 ACK 38 [0 1 0 0] 
r 11.032290116 _1_ MAC  --- 0 ACK 38 [0 1 0 0] 
s 11.032499302 _3_ MAC  --- 0 RTS 44 [58e 2 3 0] 
r 11.032852058 _2_ MAC  --- 0 RTS 44 [58e 2 3 0] 
s 11.032862058 _2_ MAC  --- 0 CTS 38 [454 3 0 0] 
r 11.033166813 _3_ MAC  --- 0 CTS 38 [454 3 0 0] 
s 11.033176813 _3_ MAC  --- 13 ack 98 [13a 2 3 800] ------- [1:0 0:0 29 2] [6 0] 1 0
r 11.033961569 _2_ MAC  --- 13 ack 40 [13a 2 3 800] ------- [1:0 0:0 29 2] [6 0] 2 0
s 11.033971569 _2_ MAC  --- 0 ACK 38 [0 3 0 0] 
r 11.034276325 _3_ MAC  --- 0 ACK 38 [0 3 0 0] 
s 11.034585569 _2_ MAC  --- 0 RTS 44 [58e 0 2 0] 
r 11.034937953 _0_ MAC  --- 0 RTS 44 [58e 0 2 0] 
s 11.034947953 _0_ MAC  --- 0 CTS 38 [454 2 0 0] 
r 11.035252336 _2_ MAC  --- 0 CTS 38 [454 2 0 0] 
s 11.035262336 _2_ MAC  --- 13 ack 98 [13a 0 2 800] ------- [1:0 0:0 28 0] [6 0] 2 0
r 11.036046720 _0_ MAC  --- 13 ack 40 [13a 0 2 800] ------- [1:0 0:0 28 0] [6 0] 3 0
s 11.036056720 _0_ MAC  --- 0 ACK 38 [0 2 0 0] 
r 11.036361104 _2_ MAC  --- 0 ACK 38 [0 2 0 0] 
s 11.036410720 _0_ MAC  --- 0 RTS 44 [24ce 2 0 0] 
r 11.036763104 _2_ MAC  --- 0 RTS 44 [24ce 2 0 0] 
s 11.036773104 _2_ MAC  --- 0 CTS 38 [2394 0 0 0] 
r 11.037077488 _0_ MAC  --- 0 CTS 38 [2394 0 0 0] 
s 11.037087488 _0_ MAC  --- 14 tcp 1098 [13a 2 0 800] ------- [0:0 1:0 30 2] [7 0] 0 0
r 11.045871871 _2_ MAC  --- 14 tcp 1040 [13a 2 0 800] ------- [0:0 1:0 30 2] [7 0] 1 0
s 11.045881871 _2_ MAC  --- 0 ACK 38 [0 0 0 0] 
r 11.046186255 _0_ MAC  --- 0 ACK 38 [0 0 0 0] 
s 11.046295871 _2_ MAC  --- 0 RTS 44 [24ce 3 2 0] 
r 11.046648627 _3_ MAC  --- 0 RTS 44 [24ce 3 2 0] 
s 11.046658627 _3_ MAC  --- 0 CTS 38 [2394 2 0 0] 
r 11.046963383 _2_ MAC  --- 0 CTS 38 [2394 2 0 0] 
s 11.046973383 _2_ MAC  --- 14 tcp 1098 [13a 3 2 800] ------- [0:0 1:0 29 3] [7 0] 1 0
r 11.055758138 _3_ MAC  --- 14 tcp 1040 [13a 3 2 800] ------- [0:0 1:0 29 3] [7 0] 2 0
s 11.055768138 _3_ MAC  --- 0 ACK 38 [0 2 0 0] 
r 11.056072894 _2_ MAC  --- 0 ACK 38 [0 2 0 0] 
s 11.056722138 _3_ MAC  --- 0 RTS 44 [24ce 1 3 0] 
r 11.057074952 _1_ MAC  --- 0 RTS 44 [24ce 1 3 0] 
s 11.057084952 _1_ MAC  --- 0 CTS 38 [2394 3 0 0] 
r 11.057389766 _3_ MAC  --- 0 CTS 38 [2394 3 0 0] 
s 11.057399766 _3_ MAC  --- 14 tcp 1098 [13a 1 3 800] ------- [0:0 1:0 28 1] [7 0] 2 0
r 11.066184580 _1_ MAC  --- 14 tcp 1040 [13a 1 3 800] ------- [0:0 1:0 28 1] [7 0] 3 0
s 11.066194580 _1_ MAC  --- 0 ACK 38 [0 3 0 0] 
r 11.066499394 _3_ MAC  --- 0 ACK 38 [0 3 0 0] 
s 11.066568580 _1_ MAC  --- 0 RTS 44 [58e 3 1 0] 
s 11.066858898 _0_ MAC  --- 0 RTS 44 [24ce 2 0 0] 
D 11.066860029 _3_ MAC  COL 0 RTS 44 [58e 3 1 0] 
D 11.067211282 _2_ MAC  COL 0 RTS 44 [24ce 2 0 0] 
s 11.067528580 _1_ MAC  --- 0 RTS 44 [58e 3 1 0] 
s 11.067578898 _0_ MAC  --- 0 RTS 44 [24ce 2 0 0] 
D 11.067580029 _3_ MAC  COL 0 RTS 44 [58e 3 1 0] 
D 11.067931282 _2_ MAC  COL 0 RTS 44 [24ce 2 0 0] 
s 11.068548580 _1_ MAC  --- 0 RTS 44 [58e 3 1 0] 
r 11.068901394 _3_ MAC  --- 0 RTS 44 [58e 3 1 0] 
s 11.068911394 _3_ MAC  --- 0 CTS 38 [454 1 0 0] 
r 11.069216208 _1_ MAC  --- 0 CTS 38 [454 1 0 0] 
s 11.069226208 _1_ MAC  --- 16 ack 98 [13a 3 1 800] ------- [1:0 0:0 30 3] [7 0] 0 0
s 11.069690526 _0_ MAC  --- 0 RTS 44 [24ce 2 0 0] 
D 11.069691657 _3_ MAC  COL 16 ack 98 [13a 3 1 800] ------- [1:0 0:0 30 3] [7 0] 0 0
D 11.070042909 _2_ MAC  COL 0 RTS 44 [24ce 2 0 0] 
s 11.071510526 _0_ MAC  --- 0 RTS 44 [24ce 2 0 0] 
r 11.071862909 _2_ MAC  --- 0 RTS 44 [24ce 2 0 0] 
s 11.071872909 _2_ MAC  --- 0 CTS 38 [2394 0 0 0] 
r 11.072177293 _0_ MAC  --- 0 CTS 38 [2394 0 0 0] 
s 11.072187293 _0_ MAC  --- 15 tcp 1098 [13a 2 0 800] ------- [0:0 1:0 30 2] [8 0] 0 0
s 11.073512394 _1_ MAC  --- 0 RTS 44 [58e 3 1 0] 
D 11.073513208 _3_ MAC  COL 0 RTS 44 [58e 3 1 0] 
s 11.078552394 _1_ MAC  --- 0 RTS 44 [58e 3 1 0] 
D 11.078553208 _3_ MAC  COL 0 RTS 44 [58e 3 1 0] 
r 11.080971677 _2_ MAC  --- 15 tcp 1040 [13a 2 0 800] ------- [0:0 1:0 30 2] [8 0] 1 0
s 11.080981677 _2_ MAC  --- 0 ACK 38 [0 0 0 0] 
r 11.081286061 _0_ MAC  --- 0 ACK 38 [0 0 0 0] 
s 11.081655677 _2_ MAC  --- 0 RTS 44 [24ce 3 2 0] 
r 11.082008433 _3_ MAC  --- 0 RTS 44 [24ce 3 2 0] 
s 11.082018433 _3_ MAC  --- 0 CTS 38 [2394 2 0 0] 
r 11.082323188 _2_ MAC  --- 0 CTS 38 [2394 2 0 0] 
s 11.082333188 _2_ MAC  --- 15 tcp 1098 [13a 3 2 800] ------- [0:0 1:0 29 3] [8 0] 1 0
r 11.091117944 _3_ MAC  --- 15 tcp 1040 [13a 3 2 800] ------- [0:0 1:0 29 3] [8 0] 2 0
s 11.091127944 _3_ MAC  --- 0 ACK 38 [0 2 0 0] 
r 11.091432700 _2_ MAC  --- 0 ACK 38 [0 2 0 0] 
s 11.092021944 _3_ MAC  --- 0 RTS 44 [24ce 1 3 0] 
r 11.092374758 _1_ MAC  --- 0 RTS 44 [24ce 1 3 0] 
s 11.092384758 _1_ MAC  --- 0 CTS 38 [2394 3 0 0] 
r 11.092689572 _3_ MAC  --- 0 CTS 38 [2394 3 0 0] 
s 11.092699572 _3_ MAC  --- 15 tcp 1098 [13a 1 3 800] ------- [0:0 1:0 28 1] [8 0] 2 0
r 11.101484386 _1_ MAC  --- 15 tcp 1040 [13a 1 3 800] ------- [0:0 1:0 28 1] [8 0] 3 0
s 11.101494386 _1_ MAC  --- 0 ACK 38 [0 3 0 0] 