s 10.026000000 _0_ MAC  --- 0 AODV 100 [0 ffffffff 0 0] ------- [0:255 -1:255 30 0] [0x2 1 1 [1 0] [0 4]] (REQUEST)
r 10.026400384 _2_ MAC  --- 0 AODV 48 [0 ffffffff 0 0] ------- [0:255 -1:255 30 0] [0x2 1 1 [1 0] [0 4]] (REQUEST)
r 10.026401132 _3_ MAC  --- 0 AODV 48 [0 ffffffff 0 0] ------- [0:255 -1:255 30 0] [0x2 1 1 [1 0] [0 4]] (REQUEST)
s 10.068000000 _2_ MAC  --- 0 AODV 100 [0 ffffffff 2 0] ------- [2:255 -1:255 29 0] [0x2 2 1 [1 0] [0 4]] (REQUEST)
r 10.068400384 _0_ MAC  --- 0 AODV 48 [0 ffffffff 2 0] ------- [2:255 -1:255 29 0] [0x2 2 1 [1 0] [0 4]] (REQUEST)
r 10.068400756 _3_ MAC  --- 0 AODV 48 [0 ffffffff 2 0] ------- [2:255 -1:255 29 0] [0x2 2 1 [1 0] [0 4]] (REQUEST)
r 10.068401484 _1_ MAC  --- 0 AODV 48 [0 ffffffff 2 0] ------- [2:255 -1:255 29 0] [0x2 2 1 [1 0] [0 4]] (REQUEST)
s 10.104000000 _3_ MAC  --- 0 AODV 100 [0 ffffffff 3 0] ------- [3:255 -1:255 28 0] [0x2 3 1 [1 0] [0 4]] (REQUEST)
r 10.104400756 _2_ MAC  --- 0 AODV 48 [0 ffffffff 3 0] ------- [3:255 -1:255 28 0] [0x2 3 1 [1 0] [0 4]] (REQUEST)
r 10.104400814 _1_ MAC  --- 0 AODV 48 [0 ffffffff 3 0] ------- [3:255 -1:255 28 0] [0x2 3 1 [1 0] [0 4]] (REQUEST)
r 10.104401132 _0_ MAC  --- 0 AODV 48 [0 ffffffff 3 0] ------- [3:255 -1:255 28 0] [0x2 3 1 [1 0] [0 4]] (REQUEST)
s 10.122000000 _1_ MAC  --- 0 ARP 80 [0 ffffffff 1 0] ------- [REQUEST 1/1 0/3]
r 10.122320814 _3_ MAC  --- 0 ARP 28 [0 ffffffff 1 0] ------- [REQUEST 1/1 0/3]
r 10.122321484 _2_ MAC  --- 0 ARP 28 [0 ffffffff 1 0] ------- [REQUEST 1/1 0/3]
s 10.164000000 _3_ MAC  --- 0 ARP 80 [5 1 3 0] ------- [REPLY 3/3 1/1]
r 10.164320814 _1_ MAC  --- 0 ARP 28 [5 1 3 0] ------- [REPLY 3/3 1/1]
s 10.182000000 _1_ MAC  --- 0 AODV 96 [5 3 1 0] ------- [1:255 0:255 30 3] [0x4 1 [1 4] 10.000000] (REPLY)
r 10.182384814 _3_ MAC  --- 0 AODV 44 [5 3 1 0] ------- [1:255 0:255 30 3] [0x4 1 [1 4] 10.000000] (REPLY)
s 10.224000000 _3_ MAC  --- 0 ARP 80 [0 ffffffff 3 0] ------- [REQUEST 3/3 0/2]
r 10.224320756 _2_ MAC  --- 0 ARP 28 [0 ffffffff 3 0] ------- [REQUEST 3/3 0/2]
r 10.224320814 _1_ MAC  --- 0 ARP 28 [0 ffffffff 3 0] ------- [REQUEST 3/3 0/2]
r 10.224321132 _0_ MAC  --- 0 ARP 28 [0 ffffffff 3 0] ------- [REQUEST 3/3 0/2]
s 10.248000000 _2_ MAC  --- 0 ARP 80 [5 3 2 0] ------- [REPLY 2/2 3/3]
r 10.248320756 _3_ MAC  --- 0 ARP 28 [5 3 2 0] ------- [REPLY 2/2 3/3]
s 10.284000000 _3_ MAC  --- 0 AODV 96 [5 2 3 0] ------- [1:255 0:255 29 2] [0x4 2 [1 4] 10.000000] (REPLY)
r 10.284384756 _2_ MAC  --- 0 AODV 44 [5 2 3 0] ------- [1:255 0:255 29 2] [0x4 2 [1 4] 10.000000] (REPLY)
s 10.308000000 _2_ MAC  --- 0 ARP 80 [0 ffffffff 2 0] ------- [REQUEST 2/2 0/0]
r 10.308320384 _0_ MAC  --- 0 ARP 28 [0 ffffffff 2 0] ------- [REQUEST 2/2 0/0]
r 10.308320756 _3_ MAC  --- 0 ARP 28 [0 ffffffff 2 0] ------- [REQUEST 2/2 0/0]
r 10.308321484 _1_ MAC  --- 0 ARP 28 [0 ffffffff 2 0] ------- [REQUEST 2/2 0/0]
s 10.326000000 _0_ MAC  --- 0 ARP 80 [5 2 0 0] ------- [REPLY 0/0 2/2]
r 10.326320384 _2_ MAC  --- 0 ARP 28 [5 2 0 0] ------- [REPLY 0/0 2/2]
s 10.368000000 _2_ MAC  --- 0 AODV 96 [5 0 2 0] ------- [1:255 0:255 28 0] [0x4 3 [1 4] 10.000000] (REPLY)
r 10.368384384 _0_ MAC  --- 0 AODV 44 [5 0 2 0] ------- [1:255 0:255 28 0] [0x4 3 [1 4] 10.000000] (REPLY)
s 10.386000000 _0_ MAC  --- 0 tcp 92 [5 2 0 0] ------- [0:0 1:0 30 2] [0 0] 0 0
r 10.386368384 _2_ MAC  --- 0 tcp 40 [5 2 0 0] ------- [0:0 1:0 30 2] [0 0] 1 0
s 10.428000000 _2_ MAC  --- 0 tcp 92 [5 3 2 0] ------- [0:0 1:0 29 3] [0 0] 1 0
r 10.428368756 _3_ MAC  --- 0 tcp 40 [5 3 2 0] ------- [0:0 1:0 29 3] [0 0] 2 0
s 10.464000000 _3_ MAC  --- 0 tcp 92 [5 1 3 0] ------- [0:0 1:0 28 1] [0 0] 2 0
r 10.464368814 _1_ MAC  --- 0 tcp 40 [5 1 3 0] ------- [0:0 1:0 28 1] [0 0] 3 0
s 10.482000000 _1_ MAC  --- 1 ack 92 [5 3 1 0] ------- [1:0 0:0 30 3] [0 0] 0 0
r 10.482368814 _3_ MAC  --- 1 ack 40 [5 3 1 0] ------- [1:0 0:0 30 3] [0 0] 1 0
s 10.524000000 _3_ MAC  --- 1 ack 92 [5 2 3 0] ------- [1:0 0:0 29 2] [0 0] 1 0
r 10.524368756 _2_ MAC  --- 1 ack 40 [5 2 3 0] ------- [1:0 0:0 29 2] [0 0] 2 0
s 10.548000000 _2_ MAC  --- 1 ack 92 [5 0 2 0] ------- [1:0 0:0 28 0] [0 0] 2 0
r 10.548368384 _0_ MAC  --- 1 ack 40 [5 0 2 0] ------- [1:0 0:0 28 0] [0 0] 3 0
s 10.566000000 _0_ MAC  --- 2 tcp 1092 [5 2 0 0] ------- [0:0 1:0 30 2] [1 0] 0 0
r 10.570368384 _2_ MAC  --- 2 tcp 1040 [5 2 0 0] ------- [0:0 1:0 30 2] [1 0] 1 0
s 10.596000000 _0_ MAC  --- 3 tcp 1092 [5 2 0 0] ------- [0:0 1:0 30 2] [2 0] 0 0
r 10.600368384 _2_ MAC  --- 3 tcp 1040 [5 2 0 0] ------- [0:0 1:0 30 2] [2 0] 1 0
s 10.608000000 _2_ MAC  --- 2 tcp 1092 [5 3 2 0] ------- [0:0 1:0 29 3] [1 0] 1 0
r 10.612368756 _3_ MAC  --- 2 tcp 1040 [5 3 2 0] ------- [0:0 1:0 29 3] [1 0] 2 0
s 10.638000000 _2_ MAC  --- 3 tcp 1092 [5 3 2 0] ------- [0:0 1:0 29 3] [2 0] 1 0
r 10.642368756 _3_ MAC  --- 3 tcp 1040 [5 3 2 0] ------- [0:0 1:0 29 3] [2 0] 2 0
s 10.644000000 _3_ MAC  --- 2 tcp 1092 [5 1 3 0] ------- [0:0 1:0 28 1] [1 0] 2 0
r 10.648368814 _1_ MAC  --- 2 tcp 1040 [5 1 3 0] ------- [0:0 1:0 28 1] [1 0] 3 0
s 10.662000000 _1_ MAC  --- 4 ack 92 [5 3 1 0] ------- [1:0 0:0 30 3] [1 0] 0 0
r 10.662368814 _3_ MAC  --- 4 ack 40 [5 3 1 0] ------- [1:0 0:0 30 3] [1 0] 1 0
s 10.674000000 _3_ MAC  --- 3 tcp 1092 [5 1 3 0] ------- [0:0 1:0 28 1] [2 0] 2 0
r 10.678368814 _1_ MAC  --- 3 tcp 1040 [5 1 3 0] ------- [0:0 1:0 28 1] [2 0] 3 0
s 10.692000000 _1_ MAC  --- 5 ack 92 [5 3 1 0] ------- [1:0 0:0 30 3] [2 0] 0 0
r 10.692368814 _3_ MAC  --- 5 ack 40 [5 3 1 0] ------- [1:0 0:0 30 3] [2 0] 1 0
s 10.704000000 _3_ MAC  --- 4 ack 92 [5 2 3 0] ------- [1:0 0:0 29 2] [1 0] 1 0
r 10.704368756 _2_ MAC  --- 4 ack 40 [5 2 3 0] ------- [1:0 0:0 29 2] [1 0] 2 0
s 10.728000000 _2_ MAC  --- 4 ack 92 [5 0 2 0] ------- [1:0 0:0 28 0] [1 0] 2 0
r 10.728368384 _0_ MAC  --- 4 ack 40 [5 0 2 0] ------- [1:0 0:0 28 0] [1 0] 3 0
s 10.734000000 _3_ MAC  --- 5 ack 92 [5 2 3 0] ------- [1:0 0:0 29 2] [2 0] 1 0
r 10.734368756 _2_ MAC  --- 5 ack 40 [5 2 3 0] ------- [1:0 0:0 29 2] [2 0] 2 0
s 10.746000000 _0_ MAC  --- 6 tcp 1092 [5 2 0 0] ------- [0:0 1:0 30 2] [3 0] 0 0
r 10.750368384 _2_ MAC  --- 6 tcp 1040 [5 2 0 0] ------- [0:0 1:0 30 2] [3 0] 1 0
s 10.758000000 _2_ MAC  --- 5 ack 92 [5 0 2 0] ------- [1:0 0:0 28 0] [2 0] 2 0
r 10.758368384 _0_ MAC  --- 5 ack 40 [5 0 2 0] ------- [1:0 0:0 28 0] [2 0] 3 0
s 10.776000000 _0_ MAC  --- 7 tcp 1092 [5 2 0 0] ------- [0:0 1:0 30 2] [4 0] 0 0
r 10.780368384 _2_ MAC  --- 7 tcp 1040 [5 2 0 0] ------- [0:0 1:0 30 2] [4 0] 1 0
s 10.788000000 _2_ MAC  --- 6 tcp 1092 [5 3 2 0] ------- [0:0 1:0 29 3] [3 0] 1 0
r 10.792368756 _3_ MAC  --- 6 tcp 1040 [5 3 2 0] ------- [0:0 1:0 29 3] [3 0] 2 0
s 10.806000000 _0_ MAC  --- 8 tcp 1092 [5 2 0 0] ------- [0:0 1:0 30 2] [5 0] 0 0
r 10.810368384 _2_ MAC  --- 8 tcp 1040 [5 2 0 0] ------- [0:0 1:0 30 2] [5 0] 1 0
s 10.818000000 _2_ MAC  --- 7 tcp 1092 [5 3 2 0] ------- [0:0 1:0 29 3] [4 0] 1 0
r 10.822368756 _3_ MAC  --- 7 tcp 1040 [5 3 2 0] ------- [0:0 1:0 29 3] [4 0] 2 0
s 10.824000000 _3_ MAC  --- 6 tcp 1092 [5 1 3 0] ------- [0:0 1:0 28 1] [3 0] 2 0
r 10.828368814 _1_ MAC  --- 6 tcp 1040 [5 1 3 0] ------- [0:0 1:0 28 1] [3 0] 3 0
s 10.842000000 _1_ MAC  --- 9 ack 92 [5 3 1 0] ------- [1:0 0:0 30 3] [3 0] 0 0
r 10.842368814 _3_ MAC  --- 9 ack 40 [5 3 1 0] ------- [1:0 0:0 30 3] [3 0] 1 0
s 10.848000000 _2_ MAC  --- 8 tcp 1092 [5 3 2 0] ------- [0:0 1:0 29 3] [5 0] 1 0
r 10.852368756 _3_ MAC  --- 8 tcp 1040 [5 3 2 0] ------- [0:0 1:0 29 3] [5 0] 2 0
s 10.854000000 _3_ MAC  --- 7 tcp 1092 [5 1 3 0] ------- [0:0 1:0 28 1] [4 0] 2 0
r 10.858368814 _1_ MAC  --- 7 tcp 1040 [5 1 3 0] ------- [0:0 1:0 28 1] [4 0] 3 0
s 10.872000000 _1_ MAC  --- 10 ack 92 [5 3 1 0] ------- [1:0 0:0 30 3] [4 0] 0 0
r 10.872368814 _3_ MAC  --- 10 ack 40 [5 3 1 0] ------- [1:0 0:0 30 3] [4 0] 1 0
s 10.884000000 _3_ MAC  --- 9 ack 92 [5 2 3 0] ------- [1:0 0:0 29 2] [3 0] 1 0
r 10.884368756 _2_ MAC  --- 9 ack 40 [5 2 3 0] ------- [1:0 0:0 29 2] [3 0] 2 0
s 10.908000000 _2_ MAC  --- 9 ack 92 [5 0 2 0] ------- [1:0 0:0 28 0] [3 0] 2 0
r 10.908368384 _0_ MAC  --- 9 ack 40 [5 0 2 0] ------- [1:0 0:0 28 0] [3 0] 3 0
s 10.914000000 _3_ MAC  --- 8 tcp 1092 [5 1 3 0] ------- [0:0 1:0 28 1] [5 0] 2 0
r 10.918368814 _1_ MAC  --- 8 tcp 1040 [5 1 3 0] ------- [0:0 1:0 28 1] [5 0] 3 0
s 10.932000000 _1_ MAC  --- 11 ack 92 [5 3 1 0] ------- [1:0 0:0 30 3] [5 0] 0 0
r 10.932368814 _3_ MAC  --- 11 ack 40 [5 3 1 0] ------- [1:0 0:0 30 3] [5 0] 1 0
s 10.944000000 _3_ MAC  --- 10 ack 92 [5 2 3 0] ------- [1:0 0:0 29 2] [4 0] 1 0
r 10.944368756 _2_ MAC  --- 10 ack 40 [5 2 3 0] ------- [1:0 0:0 29 2] [4 0] 2 0
s 10.968000000 _2_ MAC  --- 10 ack 92 [5 0 2 0] ------- [1:0 0:0 28 0] [4 0] 2 0
r 10.968368384 _0_ MAC  --- 10 ack 40 [5 0 2 0] ------- [1:0 0:0 28 0] [4 0] 3 0
s 10.974000000 _3_ MAC  --- 11 ack 92 [5 2 3 0] ------- [1:0 0:0 29 2] [5 0] 1 0
r 10.974368756 _2_ MAC  --- 11 ack 40 [5 2 3 0] ------- [1:0 0:0 29 2] [5 0] 2 0
s 10.998000000 _2_ MAC  --- 11 ack 92 [5 0 2 0] ------- [1:0 0:0 28 0] [5 0] 2 0
r 10.998368384 _0_ MAC  --- 11 ack 40 [5 0 2 0] ------- [1:0 0:0 28 0] [5 0] 3 0
s 11.016000000 _0_ MAC  --- 12 tcp 1092 [5 2 0 0] ------- [0:0 1:0 30 2] [6 0] 0 0
r 11.020368384 _2_ MAC  --- 12 tcp 1040 [5 2 0 0] ------- [0:0 1:0 30 2] [6 0] 1 0
s 11.046000000 _0_ MAC  --- 13 tcp 1092 [5 2 0 0] ------- [0:0 1:0 30 2] [7 0] 0 0
r 11.050368384 _2_ MAC  --- 13 tcp 1040 [5 2 0 0] ------- [0:0 1:0 30 2] [7 0] 1 0
s 11.058000000 _2_ MAC  --- 12 tcp 1092 [5 3 2 0] ------- [0:0 1:0 29 3] [6 0] 1 0
r 11.062368756 _3_ MAC  --- 12 tcp 1040 [5 3 2 0] ------- [0:0 1:0 29 3] [6 0] 2 0
s 11.076000000 _0_ MAC  --- 14 tcp 1092 [5 2 0 0] ------- [0:0 1:0 30 2] [8 0] 0 0
r 11.080368384 _2_ MAC  --- 14 tcp 1040 [5 2 0 0] ------- [0:0 1:0 30 2] [8 0] 1 0
s 11.088000000 _2_ MAC  --- 13 tcp 1092 [5 3 2 0] ------- [0:0 1:0 29 3] [7 0] 1 0
r 11.092368756 _3_ MAC  --- 13 tcp 1040 [5 3 2 0] ------- [0:0 1:0 29 3] [7 0] 2 0
s 11.094000000 _3_ MAC  --- 12 tcp 1092 [5 1 3 0] ------- [0:0 1:0 28 1] [6 0] 2 0
r 11.098368814 _1_ MAC  --- 12 tcp 1040 [5 1 3 0] ------- [0:0 1:0 28 1] [6 0] 3 0
s 11.106000000 _0_ MAC  --- 15 tcp 1092 [5 2 0 0] ------- [0:0 1:0 30 2] [9 0] 0 0
r 11.110368384 _2_ MAC  --- 15 tcp 1040 [5 2 0 0] ------- [0:0 1:0 30 2] [9 0] 1 0
s 11.112000000 _1_ MAC  --- 17 ack 92 [5 3 1 0] ------- [1:0 0:0 30 3] [6 0] 0 0
r 11.112368814 _3_ MAC  --- 17 ack 40 [5 3 1 0] ------- [1:0 0:0 30 3] [6 0] 1 0
s 11.118000000 _2_ MAC  --- 14 tcp 1092 [5 3 2 0] ------- [0:0 1:0 29 3] [8 0] 1 0
r 11.122368756 _3_ MAC  --- 14 tcp 1040 [5 3 2 0] ------- [0:0 1:0 29 3] [8 0] 2 0
s 11.124000000 _3_ MAC  --- 13 tcp 1092 [5 1 3 0] ------- [0:0 1:0 28 1] [7 0] 2 0
r 11.128368814 _1_ MAC  --- 13 tcp 1040 [5 1 3 0] ------- [0:0 1:0 28 1] [7 0] 3 0
s 11.136000000 _0_ MAC  --- 16 tcp 1092 [5 2 0 0] ------- [0:0 1:0 30 2] [10 0] 0 0
r 11.140368384 _2_ MAC  --- 16 tcp 1040 [5 2 0 0] ------- [0:0 1:0 30 2] [10 0] 1 0
s 11.142000000 _1_ MAC  --- 18 ack 92 [5 3 1 0] ------- [1:0 0:0 30 3] [7 0] 0 0
r 11.142368814 _3_ MAC  --- 18 ack 40 [5 3 1 0] ------- [1:0 0:0 30 3] [7 0] 1 0
s 11.148000000 _2_ MAC  --- 15 tcp 1092 [5 3 2 0] ------- [0:0 1:0 29 3] [9 0] 1 0
r 11.152368756 _3_ MAC  --- 15 tcp 1040 [5 3 2 0] ------- [0:0 1:0 29 3] [9 0] 2 0
s 11.154000000 _3_ MAC  --- 17 ack 92 [5 2 3 0] ------- [1:0 0:0 29 2] [6 0] 1 0
r 11.154368756 _2_ MAC  --- 17 ack 40 [5 2 3 0] ------- [1:0 0:0 29 2] [6 0] 2 0
s 11.178000000 _2_ MAC  --- 16 tcp 1092 [5 3 2 0] ------- [0:0 1:0 29 3] [10 0] 1 0
r 11.182368756 _3_ MAC  --- 16 tcp 1040 [5 3 2 0] ------- [0:0 1:0 29 3] [10 0] 2 0
s 11.184000000 _3_ MAC  --- 14 tcp 1092 [5 1 3 0] ------- [0:0 1:0 28 1] [8 0] 2 0
r 11.188368814 _1_ MAC  --- 14 tcp 1040 [5 1 3 0] ------- [0:0 1:0 28 1] [8 0] 3 0
s 11.202000000 _1_ MAC  --- 19 ack 92 [5 3 1 0] ------- [1:0 0:0 30 3] [8 0] 0 0
r 11.202368814 _3_ MAC  --- 19 ack 40 [5 3 1 0] ------- [1:0 0:0 30 3] [8 0] 1 0
s 11.208000000 _2_ MAC  --- 17 ack 92 [5 0 2 0] ------- [1:0 0:0 28 0] [6 0] 2 0
r 11.208368384 _0_ MAC  --- 17 ack 40 [5 0 2 0] ------- [1:0 0:0 28 0] [6 0] 3 0
s 11.214000000 _3_ MAC  --- 18 ack 92 [5 2 3 0] ------- [1:0 0:0 29 2] [7 0] 1 0
r 11.214368756 _2_ MAC  --- 18 ack 40 [5 2 3 0] ------- [1:0 0:0 29 2] [7 0] 2 0
s 11.238000000 _2_ MAC  --- 18 ack 92 [5 0 2 0] ------- [1:0 0:0 28 0] [7 0] 2 0
r 11.238368384 _0_ MAC  --- 18 ack 40 [5 0 2 0] ------- [1:0 0:0 28 0] [7 0] 3 0
s 11.244000000 _3_ MAC  --- 15 tcp 1092 [5 1 3 0] ------- [0:0 1:0 28 1] [9 0] 2 0
r 11.248368814 _1_ MAC  --- 15 tcp 1040 [5 1 3 0] ------- [0:0 1:0 28 1] [9 0] 3 0
s 11.262000000 _1_ MAC  --- 20 ack 92 [5 3 1 0] ------- [1:0 0:0 30 3] [9 0] 0 0
r 11.262368814 _3_ MAC  --- 20 ack 40 [5 3 1 0] ------- [1:0 0:0 30 3] [9 0] 1 0
s 11.274000000 _3_ MAC  --- 16 tcp 1092 [5 1 3 0] ------- [0:0 1:0 28 1] [10 0] 2 0
r 11.278368814 _1_ MAC  --- 16 tcp 1040 [5 1 3 0] ------- [0:0 1:0 28 1] [10 0] 3 0
s 11.292000000 _1_ MAC  --- 21 ack 92 [5 3 1 0] ------- [1:0 0:0 30 3] [10 0] 0 0
r 11.292368814 _3_ MAC  --- 21 ack 40 [5 3 1 0] ------- [1:0 0:0 30 3] [10 0] 1 0
s 11.304000000 _3_ MAC  --- 19 ack 92 [5 2 3 0] ------- [1:0 0:0 29 2] [8 0] 1 0
r 11.304368756 _2_ MAC  --- 19 ack 40 [5 2 3 0] ------- [1:0 0:0 29 2] [8 0] 2 0
s 11.328000000 _2_ MAC  --- 19 ack 92 [5 0 2 0] ------- [1:0 0:0 28 0] [8 0] 2 0
r 11.328368384 _0_ MAC  --- 19 ack 40 [5 0 2 0] ------- [1:0 0:0 28 0] [8 0] 3 0
s 11.334000000 _3_ MAC  --- 20 ack 92 [5 2 3 0] ------- [1:0 0:0 29 2] [9 0] 1 0
r 11.334368756 _2_ MAC  --- 20 ack 40 [5 2 3 0] ------- [1:0 0:0 29 2] [9 0] 2 0
s 11.358000000 _2_ MAC  --- 20 ack 92 [5 0 2 0] ------- [1:0 0:0 28 0] [9 0] 2 0
r 11.358368384 _0_ MAC  --- 20 ack 40 [5 0 2 0] ------- [1:0 0:0 28 0] [9 0] 3 0
s 11.364000000 _3_ MAC  --- 21 ack 92 [5 2 3 0] ------- [1:0 0:0 29 2] [10 0] 1 0
r 11.364368756 _2_ MAC  --- 21 ack 40 [5 2 3 0] ------- [1:0 0:0 29 2] [10 0] 2 0
s 11.388000000 _2_ MAC  --- 21 ack 92 [5 0 2 0] ------- [1:0 0:0 28 0] [10 0] 2 0
r 11.388368384 _0_ MAC  --- 21 ack 40 [5 0 2 0] ------- [1:0 0:0 28 0] [10 0] 3 0
s 12.036000000 _0_ MAC  --- 22 tcp 1092 [5 2 0 0] ------- [0:0 1:0 30 2] [11 0] 0 0
r 12.040368384 _2_ MAC  --- 22 tcp 1040 [5 2 0 0] ------- [0:0 1:0 30 2] [11 0] 1 0
s 12.066000000 _0_ MAC  --- 23 tcp 1092 [5 2 0 0] ------- [0:0 1:0 30 2] [12 0] 0 0
r 12.070368384 _2_ MAC  --- 23 tcp 1040 [5 2 0 0] ------- [0:0 1:0 30 2] [12 0] 1 0
s 12.078000000 _2_ MAC  --- 22 tcp 1092 [5 3 2 0] ------- [0:0 1:0 29 3] [11 0] 1 0
r 12.082368756 _3_ MAC  --- 22 tcp 1040 [5 3 2 0] ------- [0:0 1:0 29 3] [11 0] 2 0
s 12.096000000 _0_ MAC  --- 24 tcp 1092 [5 2 0 0] ------- [0:0 1:0 30 2] [13 0] 0 0
r 12.100368384 _2_ MAC  --- 24 tcp 1040 [5 2 0 0] ------- [0:0 1:0 30 2] [13 0] 1 0
s 12.108000000 _2_ MAC  --- 23 tcp 1092 [5 3 2 0] ------- [0:0 1:0 29 3] [12 0] 1 0
r 12.112368756 _3_ MAC  --- 23 tcp 1040 [5 3 2 0] ------- [0:0 1:0 29 3] [12 0] 2 0
s 12.114000000 _3_ MAC  --- 22 tcp 1092 [5 1 3 0] ------- [0:0 1:0 28 1] [11 0] 2 0
r 12.118368814 _1_ MAC  --- 22 tcp 1040 [5 1 3 0] ------- [0:0 1:0 28 1] [11 0] 3 0
s 12.126000000 _0_ MAC  --- 25 tcp 1092 [5 2 0 0] ------- [0:0 1:0 30 2] [14 0] 0 0
r 12.130368384 _2_ MAC  --- 25 tcp 1040 [5 2 0 0] ------- [0:0 1:0 30 2] [14 0] 1 0
s 12.132000000 _1_ MAC  --- 27 ack 92 [5 3 1 0] ------- [1:0 0:0 30 3] [11 0] 0 0
r 12.132368814 _3_ MAC  --- 27 ack 40 [5 3 1 0] ------- [1:0 0:0 30 3] [11 0] 1 0
s 12.138000000 _2_ MAC  --- 24 tcp 1092 [5 3 2 0] ------- [0:0 1:0 29 3] [13 0] 1 0
r 12.142368756 _3_ MAC  --- 24 tcp 1040 [5 3 2 0] ------- [0:0 1:0 29 3] [13 0] 2 0
s 12.144000000 _3_ MAC  --- 23 tcp 1092 [5 1 3 0] ------- [0:0 1:0 28 1] [12 0] 2 0
r 12.148368814 _1_ MAC  --- 23 tcp 1040 [5 1 3 0] ------- [0:0 1:0 28 1] [12 0] 3 0
s 12.156000000 _0_ MAC  --- 26 tcp 1092 [5 2 0 0] ------- [0:0 1:0 30 2] [15 0] 0 0
r 12.160368384 _2_ MAC  --- 26 tcp 1040 [5 2 0 0] ------- [0:0 1:0 30 2] [15 0] 1 0
s 12.162000000 _1_ MAC  --- 28 ack 92 [5 3 1 0] ------- [1:0 0:0 30 3] [12 0] 0 0
r 12.162368814 _3_ MAC  --- 28 ack 40 [5 3 1 0] ------- [1:0 0:0 30 3] [12 0] 1 0
s 12.168000000 _2_ MAC  --- 25 tcp 1092 [5 3 2 0] ------- [0:0 1:0 29 3] [14 0] 1 0
r 12.172368756 _3_ MAC  --- 25 tcp 1040 [5 3 2 0] ------- [0:0 1:0 29 3] [14 0] 2 0
s 12.174000000 _3_ MAC  --- 27 ack 92 [5 2 3 0] ------- [1:0 0:0 29 2] [11 0] 1 0
r 12.174368756 _2_ MAC  --- 27 ack 40 [5 2 3 0] ------- [1:0 0:0 29 2] [11 0] 2 0
s 12.198000000 _2_ MAC  --- 26 tcp 1092 [5 3 2 0] ------- [0:0 1:0 29 3] [15 0] 1 0
r 12.202368756 _3_ MAC  --- 26 tcp 1040 [5 3 2 0] ------- [0:0 1:0 29 3] [15 0] 2 0
s 12.204000000 _3_ MAC  --- 24 tcp 1092 [5 1 3 0] ------- [0:0 1:0 28 1] [13 0] 2 0
r 12.208368814 _1_ MAC  --- 24 tcp 1040 [5 1 3 0] ------- [0:0 1:0 28 1] [13 0] 3 0
s 12.222000000 _1_ MAC  --- 29 ack 92 [5 3 1 0] ------- [1:0 0:0 30 3] [13 0] 0 0
r 12.222368814 _3_ MAC  --- 29 ack 40 [5 3 1 0] ------- [1:0 0:0 30 3] [13 0] 1 0
s 12.228000000 _2_ MAC  --- 27 ack 92 [5 0 2 0] ------- [1:0 0:0 28 0] [11 0] 2 0
r 12.228368384 _0_ MAC  --- 27 ack 40 [5 0 2 0] ------- [1:0 0:0 28 0] [11 0] 3 0
s 12.234000000 _3_ MAC  --- 28 ack 92 [5 2 3 0] ------- [1:0 0:0 29 2] [12 0] 1 0
r 12.234368756 _2_ MAC  --- 28 ack 40 [5 2 3 0] ------- [1:0 0:0 29 2] [12 0] 2 0
s 12.258000000 _2_ MAC  --- 28 ack 92 [5 0 2 0] ------- [1:0 0:0 28 0] [12 0] 2 0
r 12.258368384 _0_ MAC  --- 28 ack 40 [5 0 2 0] ------- [1:0 0:0 28 0] [12 0] 3 0
s 12.264000000 _3_ MAC  --- 25 tcp 1092 [5 1 3 0] ------- [0:0 1:0 28 1] [14 0] 2 0
r 12.268368814 _1_ MAC  --- 25 tcp 1040 [5 1 3 0] ------- [0:0 1:0 28 1] [14 0] 3 0
s 12.282000000 _1_ MAC  --- 30 ack 92 [5 3 1 0] ------- [1:0 0:0 30 3] [14 0] 0 0
r 12.282368814 _3_ MAC  --- 30 ack 40 [5 3 1 0] ------- [1:0 0:0 30 3] [14 0] 1 0
s 12.294000000 _3_ MAC  --- 26 tcp 1092 [5 1 3 0] ------- [0:0 1:0 28 1] [15 0] 2 0
r 12.298368814 _1_ MAC  --- 26 tcp 1040 [5 1 3 0] ------- [0:0 1:0 28 1] [15 0] 3 0
s 12.312000000 _1_ MAC  --- 31 ack 92 [5 3 1 0] ------- [1:0 0:0 30 3] [15 0] 0 0
r 12.312368814 _3_ MAC  --- 31 ack 40 [5 3 1 0] ------- [1:0 0:0 30 3] [15 0] 1 0
s 12.324000000 _3_ MAC  --- 29 ack 92 [5 2 3 0] ------- [1:0 0:0 29 2] [13 0] 1 0
r 12.324368756 _2_ MAC  --- 29 ack 40 [5 2 3 0] ------- [1:0 0:0 29 2] [13 0] 2 0
s 12.348000000 _2_ MAC  --- 29 ack 92 [5 0 2 0] ------- [1:0 0:0 28 0] [13 0] 2 0
r 12.348368384 _0_ MAC  --- 29 ack 40 [5 0 2 0] ------- [1:0 0:0 28 0] [13 0] 3 0
s 12.354000000 _3_ MAC  --- 30 ack 92 [5 2 3 0] ------- [1:0 0:0 29 2] [14 0] 1 0
r 12.354368756 _2_ MAC  --- 30 ack 40 [5 2 3 0] ------- [1:0 0:0 29 2] [14 0] 2 0
s 12.378000000 _2_ MAC  --- 30 ack 92 [5 0 2 0] ------- [1:0 0:0 28 0] [14 0] 2 0
r 12.378368384 _0_ MAC  --- 30 ack 40 [5 0 2 0] ------- [1:0 0:0 28 0] [14 0] 3 0
s 12.384000000 _3_ MAC  --- 31 ack 92 [5 2 3 0] ------- [1:0 0:0 29 2] [15 0] 1 0
r 12.384368756 _2_ MAC  --- 31 ack 40 [5 2 3 0] ------- [1:0 0:0 29 2] [15 0] 2 0
s 12.408000000 _2_ MAC  --- 31 ack 92 [5 0 2 0] ------- [1:0 0:0 28 0] [15 0] 2 0
r 12.408368384 _0_ MAC  --- 31 ack 40 [5 0 2 0] ------- [1:0 0:0 28 0] [15 0] 3 0
s 13.026000000 _0_ MAC  --- 32 tcp 1092 [5 2 0 0] ------- [0:0 1:0 30 2] [16 0] 0 0
r 13.030368384 _2_ MAC  --- 32 tcp 1040 [5 2 0 0] ------- [0:0 1:0 30 2] [16 0] 1 0
s 13.056000000 _0_ MAC  --- 33 tcp 1092 [5 2 0 0] ------- [0:0 1:0 30 2] [17 0] 0 0
r 13.060368384 _2_ MAC  --- 33 tcp 1040 [5 2 0 0] ------- [0:0 1:0 30 2] [17 0] 1 0
s 13.068000000 _2_ MAC  --- 32 tcp 1092 [5 3 2 0] ------- [0:0 1:0 29 3] [16 0] 1 0
r 13.072368756 _3_ MAC  --- 32 tcp 1040 [5 3 2 0] ------- [0:0 1:0 29 3] [16 0] 2 0
s 13.086000000 _0_ MAC  --- 34 tcp 1092 [5 2 0 0] ------- [0:0 1:0 30 2] [18 0] 0 0
r 13.090368384 _2_ MAC  --- 34 tcp 1040 [5 2 0 0] ------- [0:0 1:0 30 2] [18 0] 1 0
s 13.098000000 _2_ MAC  --- 33 tcp 1092 [5 3 2 0] ------- [0:0 1:0 29 3] [17 0] 1 0
r 13.102368756 _3_ MAC  --- 33 tcp 1040 [5 3 2 0] ------- [0:0 1:0 29 3] [17 0] 2 0
s 13.104000000 _3_ MAC  --- 32 tcp 1092 [5 1 3 0] ------- [0:0 1:0 28 1] [16 0] 2 0
r 13.108368814 _1_ MAC  --- 32 tcp 1040 [5 1 3 0] ------- [0:0 1:0 28 1] [16 0] 3 0
s 13.116000000 _0_ MAC  --- 35 tcp 1092 [5 2 0 0] ------- [0:0 1:0 30 2] [19 0] 0 0
r 13.120368384 _2_ MAC  --- 35 tcp 1040 [5 2 0 0] ------- [0:0 1:0 30 2] [19 0] 1 0
s 13.122000000 _1_ MAC  --- 37 ack 92 [5 3 1 0] ------- [1:0 0:0 30 3] [16 0] 0 0
r 13.122368814 _3_ MAC  --- 37 ack 40 [5 3 1 0] ------- [1:0 0:0 30 3] [16 0] 1 0
s 13.128000000 _2_ MAC  --- 34 tcp 1092 [5 3 2 0] ------- [0:0 1:0 29 3] [18 0] 1 0
r 13.132368756 _3_ MAC  --- 34 tcp 1040 [5 3 2 0] ------- [0:0 1:0 29 3] [18 0] 2 0
s 13.134000000 _3_ MAC  --- 33 tcp 1092 [5 1 3 0] ------- [0:0 1:0 28 1] [17 0] 2 0
r 13.138368814 _1_ MAC  --- 33 tcp 1040 [5 1 3 0] ------- [0:0 1:0 28 1] [17 0] 3 0
s 13.146000000 _0_ MAC  --- 36 tcp 1092 [5 2 0 0] ------- [0:0 1:0 30 2] [20 0] 0 0
r 13.150368384 _2_ MAC  --- 36 tcp 1040 [5 2 0 0] ------- [0:0 1:0 30 2] [20 0] 1 0
s 13.152000000 _1_ MAC  --- 38 ack 92 [5 3 1 0] ------- [1:0 0:0 30 3] [17 0] 0 0
r 13.152368814 _3_ MAC  --- 38 ack 40 [5 3 1 0] ------- [1:0 0:0 30 3] [17 0] 1 0
s 13.158000000 _2_ MAC  --- 35 tcp 1092 [5 3 2 0] ------- [0:0 1:0 29 3] [19 0] 1 0
r 13.162368756 _3_ MAC  --- 35 tcp 1040 [5 3 2 0] ------- [0:0 1:0 29 3] [19 0] 2 0
s 13.164000000 _3_ MAC  --- 37 ack 92 [5 2 3 0] ------- [1:0 0:0 29 2] [16 0] 1 0
r 13.164368756 _2_ MAC  --- 37 ack 40 [5 2 3 0] ------- [1:0 0:0 29 2] [16 0] 2 0
s 13.188000000 _2_ MAC  --- 36 tcp 1092 [5 3 2 0] ------- [0:0 1:0 29 3] [20 0] 1 0
r 13.192368756 _3_ MAC  --- 36 tcp 1040 [5 3 2 0] ------- [0:0 1:0 29 3] [20 0] 2 0
s 13.194000000 _3_ MAC  --- 34 tcp 1092 [5 1 3 0] ------- [0:0 1:0 28 1] [18 0] 2 0
r 13.198368814 _1_ MAC  --- 34 tcp 1040 [5 1 3 0] ------- [0:0 1:0 28 1] [18 0] 3 0
s 13.212000000 _1_ MAC  --- 39 ack 92 [5 3 1 0] ------- [1:0 0:0 30 3] [18 0] 0 0
r 13.212368814 _3_ MAC  --- 39 ack 40 [5 3 1 0] ------- [1:0 0:0 30 3] [18 0] 1 0
s 13.218000000 _2_ MAC  --- 37 ack 92 [5 0 2 0] ------- [1:0 0:0 28 0] [16 0] 2 0
r 13.218368384 _0_ MAC  --- 37 ack 40 [5 0 2 0] ------- [1:0 0:0 28 0] [16 0] 3 0
s 13.224000000 _3_ MAC  --- 38 ack 92 [5 2 3 0] ------- [1:0 0:0 29 2] [17 0] 1 0
r 13.224368756 _2_ MAC  --- 38 ack 40 [5 2 3 0] ------- [1:0 0:0 29 2] [17 0] 2 0
s 13.248000000 _2_ MAC  --- 38 ack 92 [5 0 2 0] ------- [1:0 0:0 28 0] [17 0] 2 0
r 13.248368384 _0_ MAC  --- 38 ack 40 [5 0 2 0] ------- [1:0 0:0 28 0] [17 0] 3 0
s 13.254000000 _3_ MAC  --- 35 tcp 1092 [5 1 3 0] ------- [0:0 1:0 28 1] [19 0] 2 0
r 13.258368814 _1_ MAC  --- 35 tcp 1040 [5 1 3 0] ------- [0:0 1:0 28 1] [19 0] 3 0
s 13.272000000 _1_ MAC  --- 40 ack 92 [5 3 1 0] ------- [1:0 0:0 30 3] [19 0] 0 0
r 13.272368814 _3_ MAC  --- 40 ack 40 [5 3 1 0] ------- [1:0 0:0 30 3] [19 0] 1 0
s 13.284000000 _3_ MAC  --- 36 tcp 1092 [5 1 3 0] ------- [0:0 1:0 28 1] [20 0] 2 0
r 13.288368814 _1_ MAC  --- 36 tcp 1040 [5 1 3 0] ------- [0:0 1:0 28 1] [20 0] 3 0
s 13.302000000 _1_ MAC  --- 41 ack 92 [5 3 1 0] ------- [1:0 0:0 30 3] [20 0] 0 0
r 13.302368814 _3_ MAC  --- 41 ack 40 [5 3 1 0] ------- [1:0 0:0 30 3] [20 0] 1 0
s 13.314000000 _3_ MAC  --- 39 ack 92 [5 2 3 0] ------- [1:0 0:0 29 2] [18 0] 1 0
r 13.314368756 _2_ MAC  --- 39 ack 40 [5 2 3 0] ------- [1:0 0:0 29 2] [18 0] 2 0
s 13.338000000 _2_ MAC  --- 39 ack 92 [5 0 2 0] ------- [1:0 0:0 28 0] [18 0] 2 0
r 13.338368384 _0_ MAC  --- 39 ack 40 [5 0 2 0] ------- [1:0 0:0 28 0] [18 0] 3 0
s 13.344000000 _3_ MAC  --- 40 ack 92 [5 2 3 0] ------- [1:0 0:0 29 2] [19 0] 1 0
r 13.344368756 _2_ MAC  --- 40 ack 40 [5 2 3 0] ------- [1:0 0:0 29 2] [19 0] 2 0
s 13.368000000 _2_ MAC  --- 40 ack 92 [5 0 2 0] ------- [1:0 0:0 28 0] [19 0] 2 0
r 13.368368384 _0_ MAC  --- 40 ack 40 [5 0 2 0] ------- [1:0 0:0 28 0] [19 0] 3 0
s 13.374000000 _3_ MAC  --- 41 ack 92 [5 2 3 0] ------- [1:0 0:0 29 2] [20 0] 1 0
r 13.374368756 _2_ MAC  --- 41 ack 40 [5 2 3 0] ------- [1:0 0:0 29 2] [20 0] 2 0
s 13.398000000 _2_ MAC  --- 41 ack 92 [5 0 2 0] ------- [1:0 0:0 28 0] [20 0] 2 0
r 13.398368384 _0_ MAC  --- 41 ack 40 [5 0 2 0] ------- [1:0 0:0 28 0] [20 0] 3 0
s 14.016000000 _0_ MAC  --- 42 tcp 1092 [5 2 0 0] ------- [0:0 1:0 30 2] [21 0] 0 0
r 14.020368384 _2_ MAC  --- 42 tcp 1040 [5 2 0 0] ------- [0:0 1:0 30 2] [21 0] 1 0
s 14.046000000 _0_ MAC  --- 43 tcp 1092 [5 2 0 0] ------- [0:0 1:0 30 2] [22 0] 0 0
r 14.050368384 _2_ MAC  --- 43 tcp 1040 [5 2 0 0] ------- [0:0 1:0 30 2] [22 0] 1 0
s 14.058000000 _2_ MAC  --- 42 tcp 1092 [5 3 2 0] ------- [0:0 1:0 29 3] [21 0] 1 0
r 14.062368756 _3_ MAC  --- 42 tcp 1040 [5 3 2 0] ------- [0:0 1:0 29 3] [21 0] 2 0
s 14.076000000 _0_ MAC  --- 44 tcp 1092 [5 2 0 0] ------- [0:0 1:0 30 2] [23 0] 0 0
r 14.080368384 _2_ MAC  --- 44 tcp 1040 [5 2 0 0] ------- [0:0 1:0 30 2] [23 0] 1 0
s 14.088000000 _2_ MAC  --- 43 tcp 1092 [5 3 2 0] ------- [0:0 1:0 29 3] [22 0] 1 0
r 14.092368756 _3_ MAC  --- 43 tcp 1040 [5 3 2 0] ------- [0:0 1:0 29 3] [22 0] 2 0
s 14.094000000 _3_ MAC  --- 42 tcp 1092 [5 1 3 0] ------- [0:0 1:0 28 1] [21 0] 2 0
r 14.098368814 _1_ MAC  --- 42 tcp 1040 [5 1 3 0] ------- [0:0 1:0 28 1] [21 0] 3 0
s 14.106000000 _0_ MAC  --- 45 tcp 1092 [5 2 0 0] ------- [0:0 1:0 30 2] [24 0] 0 0
r 14.110368384 _2_ MAC  --- 45 tcp 1040 [5 2 0 0] ------- [0:0 1:0 30 2] [24 0] 1 0
s 14.112000000 _1_ MAC  --- 47 ack 92 [5 3 1 0] ------- [1:0 0:0 30 3] [21 0] 0 0
r 14.112368814 _3_ MAC  --- 47 ack 40 [5 3 1 0] ------- [1:0 0:0 30 3] [21 0] 1 0
s 14.118000000 _2_ MAC  --- 44 tcp 1092 [5 3 2 0] ------- [0:0 1:0 29 3] [23 0] 1 0
r 14.122368756 _3_ MAC  --- 44 tcp 1040 [5 3 2 0] ------- [0:0 1:0 29 3] [23 0] 2 0
s 14.124000000 _3_ MAC  --- 43 tcp 1092 [5 1 3 0] ------- [0:0 1:0 28 1] [22 0] 2 0
r 14.128368814 _1_ MAC  --- 43 tcp 1040 [5 1 3 0] ------- [0:0 1:0 28 1] [22 0] 3 0
s 14.136000000 _0_ MAC  --- 46 tcp 1092 [5 2 0 0] ------- [0:0 1:0 30 2] [25 0] 0 0
r 14.140368384 _2_ MAC  --- 46 tcp 1040 [5 2 0 0] ------- [0:0 1:0 30 2] [25 0] 1 0
s 14.142000000 _1_ MAC  --- 48 ack 92 [5 3 1 0] ------- [1:0 0:0 30 3] [22 0] 0 0
r 14.142368814 _3_ MAC  --- 48 ack 40 [5 3 1 0] ------- [1:0 0:0 30 3] [22 0] 1 0
s 14.148000000 _2_ MAC  --- 45 tcp 1092 [5 3 2 0] ------- [0:0 1:0 29 3] [24 0] 1 0
r 14.152368756 _3_ MAC  --- 45 tcp 1040 [5 3 2 0] ------- [0:0 1:0 29 3] [24 0] 2 0
s 14.154000000 _3_ MAC  --- 47 ack 92 [5 2 3 0] ------- [1:0 0:0 29 2] [21 0] 1 0
r 14.154368756 _2_ MAC  --- 47 ack 40 [5 2 3 0] ------- [1:0 0:0 29 2] [21 0] 2 0
s 14.178000000 _2_ MAC  --- 46 tcp 1092 [5 3 2 0] ------- [0:0 1:0 29 3] [25 0] 1 0
r 14.182368756 _3_ MAC  --- 46 tcp 1040 [5 3 2 0] ------- [0:0 1:0 29 3] [25 0] 2 0
s 14.184000000 _3_ MAC  --- 44 tcp 1092 [5 1 3 0] ------- [0:0 1:0 28 1] [23 0] 2 0
r 14.188368814 _1_ MAC  --- 44 tcp 1040 [5 1 3 0] ------- [0:0 1:0 28 1] [23 0] 3 0
s 14.202000000 _1_ MAC  --- 49 ack 92 [5 3 1 0] ------- [1:0 0:0 30 3] [23 0] 0 0
r 14.202368814 _3_ MAC  --- 49 ack 40 [5 3 1 0] ------- [1:0 0:0 30 3] [23 0] 1 0
s 14.208000000 _2_ MAC  --- 47 ack 92 [5 0 2 0] ------- [1:0 0:0 28 0] [21 0] 2 0
r 14.208368384 _0_ MAC  --- 47 ack 40 [5 0 2 0] ------- [1:0 0:0 28 0] [21 0] 3 0
s 14.214000000 _3_ MAC  --- 48 ack 92 [5 2 3 0] ------- [1:0 0:0 29 2] [22 0] 1 0
r 14.214368756 _2_ MAC  --- 48 ack 40 [5 2 3 0] ------- [1:0 0:0 29 2] [22 0] 2 0
s 14.238000000 _2_ MAC  --- 48 ack 92 [5 0 2 0] ------- [1:0 0:0 28 0] [22 0] 2 0
r 14.238368384 _0_ MAC  --- 48 ack 40 [5 0 2 0] ------- [1:0 0:0 28 0] [22 0] 3 0
s 14.244000000 _3_ MAC  --- 45 tcp 1092 [5 1 3 0] ------- [0:0 1:0 28 1] [24 0] 2 0
r 14.248368814 _1_ MAC  --- 45 tcp 1040 [5 1 3 0] ------- [0:0 1:0 28 1] [24 0] 3 0
s 14.262000000 _1_ MAC  --- 50 ack 92 [5 3 1 0] ------- [1:0 0:0 30 3] [24 0] 0 0
r 14.262368814 _3_ MAC  --- 50 ack 40 [5 3 1 0] ------- [1:0 0:0 30 3] [24 0] 1 0
s 14.274000000 _3_ MAC  --- 46 tcp 1092 [5 1 3 0] ------- [0:0 1:0 28 1] [25 0] 2 0
r 14.278368814 _1_ MAC  --- 46 tcp 1040 [5 1 3 0] ------- [0:0 1:0 28 1] [25 0] 3 0
s 14.292000000 _1_ MAC  --- 51 ack 92 [5 3 1 0] ------- [1:0 0:0 30 3] [25 0] 0 0
r 14.292368814 _3_ MAC  --- 51 ack 40 [5 3 1 0] ------- [1:0 0:0 30 3] [25 0] 1 0
s 14.304000000 _3_ MAC  --- 49 ack 92 [5 2 3 0] ------- [1:0 0:0 29 2] [23 0] 1 0
r 14.304368756 _2_ MAC  --- 49 ack 40 [5 2 3 0] ------- [1:0 0:0 29 2] [23 0] 2 0
s 14.328000000 _2_ MAC  --- 49 ack 92 [5 0 2 0] ------- [1:0 0:0 28 0] [23 0] 2 0
r 14.328368384 _0_ MAC  --- 49 ack 40 [5 0 2 0] ------- [1:0 0:0 28 0] [23 0] 3 0
s 14.334000000 _3_ MAC  --- 50 ack 92 [5 2 3 0] ------- [1:0 0:0 29 2] [24 0] 1 0
r 14.334368756 _2_ MAC  --- 50 ack 40 [5 2 3 0] ------- [1:0 0:0 29 2] [24 0] 2 0
s 14.358000000 _2_ MAC  --- 50 ack 92 [5 0 2 0] ------- [1:0 0:0 28 0] [24 0] 2 0
r 14.358368384 _0_ MAC  --- 50 ack 40 [5 0 2 0] ------- [1:0 0:0 28 0] [24 0] 3 0
s 14.364000000 _3_ MAC  --- 51 ack 92 [5 2 3 0] ------- [1:0 0:0 29 2] [25 0] 1 0
r 14.364368756 _2_ MAC  --- 51 ack 40 [5 2 3 0] ------- [1:0 0:0 29 2] [25 0] 2 0
s 14.388000000 _2_ MAC  --- 51 ack 92 [5 0 2 0] ------- [1:0 0:0 28 0] [25 0] 2 0
r 14.388368384 _0_ MAC  --- 51 ack 40 [5 0 2 0] ------- [1:0 0:0 28 0] [25 0] 3 0
s 15.036000000 _0_ MAC  --- 52 tcp 1092 [5 2 0 0] ------- [0:0 1:0 30 2] [26 0] 0 0
r 15.040368384 _2_ MAC  --- 52 tcp 1040 [5 2 0 0] ------- [0:0 1:0 30 2] [26 0] 1 0
s 15.066000000 _0_ MAC  --- 53 tcp 1092 [5 2 0 0] ------- [0:0 1:0 30 2] [27 0] 0 0
r 15.070368384 _2_ MAC  --- 53 tcp 1040 [5 2 0 0] ------- [0:0 1:0 30 2] [27 0] 1 0
s 15.078000000 _2_ MAC  --- 52 tcp 1092 [5 3 2 0] ------- [0:0 1:0 29 3] [26 0] 1 0
r 15.082368756 _3_ MAC  --- 52 tcp 1040 [5 3 2 0] ------- [0:0 1:0 29 3] [26 0] 2 0
s 15.096000000 _0_ MAC  --- 54 tcp 1092 [5 2 0 0] ------- [0:0 1:0 30 2] [28 0] 0 0
r 15.100368384 _2_ MAC  --- 54 tcp 1040 [5 2 0 0] ------- [0:0 1:0 30 2] [28 0] 1 0
s 15.108000000 _2_ MAC  --- 53 tcp 1092 [5 3 2 0] ------- [0:0 1:0 29 3] [27 0] 1 0
r 15.112368756 _3_ MAC  --- 53 tcp 1040 [5 3 2 0] ------- [0:0 1:0 29 3] [27 0] 2 0
s 15.114000000 _3_ MAC  --- 52 tcp 1092 [5 1 3 0] ------- [0:0 1:0 28 1] [26 0] 2 0
r 15.118368814 _1_ MAC  --- 52 tcp 1040 [5 1 3 0] ------- [0:0 1:0 28 1] [26 0] 3 0