n -t * -s 0  -x 5 -y 5 -Z 0 -z 30  -v circle -c black
n -t * -s 1  -x 490 -y 285 -Z 0 -z 30  -v circle -c black
n -t * -s 2  -x 100 -y 70 -Z 0 -z 30  -v circle -c black
n -t * -s 3  -x 250 -y 240 -Z 0 -z 30  -v circle -c black
V -t * -v 1.0a5 -a 0
W -t * -x 500 -y 400
A -t * -n 1 -p 0 -o 0x7fffffff -c 30 -a 1
A -t * -h 1 -m 1073741823 -s 0
+ -t 10.026000000 -s 0 -d -1 -p AODV -e 100 -c 2 -a 0 -i 0 -k MAC 
- -t 10.026000000 -s 0 -d -1 -p AODV -e 100 -c 2 -a 0 -i 0 -k MAC
h -t 10.026000000 -s 0 -d -1 -p AODV -e 100 -c 2 -a 0 -i 0 -k MAC
r -t 10.026400384 -s 2 -d -1 -p AODV -e 48 -c 2 -a 0 -i 0 -k MAC
r -t 10.026401132 -s 3 -d -1 -p AODV -e 48 -c 2 -a 0 -i 0 -k MAC
+ -t 10.068000000 -s 2 -d -1 -p AODV -e 100 -c 2 -a 0 -i 0 -k MAC 
- -t 10.068000000 -s 2 -d -1 -p AODV -e 100 -c 2 -a 0 -i 0 -k MAC
h -t 10.068000000 -s 2 -d -1 -p AODV -e 100 -c 2 -a 0 -i 0 -k MAC
r -t 10.068400384 -s 0 -d -1 -p AODV -e 48 -c 2 -a 0 -i 0 -k MAC
r -t 10.068400756 -s 3 -d -1 -p AODV -e 48 -c 2 -a 0 -i 0 -k MAC
r -t 10.068401484 -s 1 -d -1 -p AODV -e 48 -c 2 -a 0 -i 0 -k MAC
+ -t 10.104000000 -s 3 -d -1 -p AODV -e 100 -c 2 -a 0 -i 0 -k MAC 
- -t 10.104000000 -s 3 -d -1 -p AODV -e 100 -c 2 -a 0 -i 0 -k MAC
h -t 10.104000000 -s 3 -d -1 -p AODV -e 100 -c 2 -a 0 -i 0 -k MAC
r -t 10.104400756 -s 2 -d -1 -p AODV -e 48 -c 2 -a 0 -i 0 -k MAC
r -t 10.104400814 -s 1 -d -1 -p AODV -e 48 -c 2 -a 0 -i 0 -k MAC
r -t 10.104401132 -s 0 -d -1 -p AODV -e 48 -c 2 -a 0 -i 0 -k MAC
+ -t 10.122000000 -s 1 -d -1 -p ARP -e 80 -c 2 -a 0 -i 0 -k MAC 
- -t 10.122000000 -s 1 -d -1 -p ARP -e 80 -c 2 -a 0 -i 0 -k MAC
h -t 10.122000000 -s 1 -d -1 -p ARP -e 80 -c 2 -a 0 -i 0 -k MAC
r -t 10.122320814 -s 3 -d -1 -p ARP -e 28 -c 2 -a 0 -i 0 -k MAC
r -t 10.122321484 -s 2 -d -1 -p ARP -e 28 -c 2 -a 0 -i 0 -k MAC
+ -t 10.164000000 -s 3 -d -1 -p ARP -e 80 -c 2 -a 0 -i 0 -k MAC 
- -t 10.164000000 -s 3 -d -1 -p ARP -e 80 -c 2 -a 0 -i 0 -k MAC
h -t 10.164000000 -s 3 -d -1 -p ARP -e 80 -c 2 -a 0 -i 0 -k MAC
r -t 10.164320814 -s 1 -d -1 -p ARP -e 28 -c 2 -a 0 -i 0 -k MAC
+ -t 10.182000000 -s 1 -d 3 -p AODV -e 96 -c 2 -a 0 -i 0 -k MAC 
- -t 10.182000000 -s 1 -d 3 -p AODV -e 96 -c 2 -a 0 -i 0 -k MAC
h -t 10.182000000 -s 1 -d 3 -p AODV -e 96 -c 2 -a 0 -i 0 -k MAC
r -t 10.182384814 -s 3 -d 3 -p AODV -e 44 -c 2 -a 0 -i 0 -k MAC
+ -t 10.224000000 -s 3 -d -1 -p ARP -e 80 -c 2 -a 0 -i 0 -k MAC 
- -t 10.224000000 -s 3 -d -1 -p ARP -e 80 -c 2 -a 0 -i 0 -k MAC
h -t 10.224000000 -s 3 -d -1 -p ARP -e 80 -c 2 -a 0 -i 0 -k MAC
r -t 10.224320756 -s 2 -d -1 -p ARP -e 28 -c 2 -a 0 -i 0 -k MAC
r -t 10.224320814 -s 1 -d -1 -p ARP -e 28 -c 2 -a 0 -i 0 -k MAC
r -t 10.224321132 -s 0 -d -1 -p ARP -e 28 -c 2 -a 0 -i 0 -k MAC
+ -t 10.248000000 -s 2 -d -1 -p ARP -e 80 -c 2 -a 0 -i 0 -k MAC 
- -t 10.248000000 -s 2 -d -1 -p ARP -e 80 -c 2 -a 0 -i 0 -k MAC
h -t 10.248000000 -s 2 -d -1 -p ARP -e 80 -c 2 -a 0 -i 0 -k MAC
r -t 10.248320756 -s 3 -d -1 -p ARP -e 28 -c 2 -a 0 -i 0 -k MAC
+ -t 10.284000000 -s 3 -d 2 -p AODV -e 96 -c 2 -a 0 -i 0 -k MAC 
- -t 10.284000000 -s 3 -d 2 -p AODV -e 96 -c 2 -a 0 -i 0 -k MAC
h -t 10.284000000 -s 3 -d 2 -p AODV -e 96 -c 2 -a 0 -i 0 -k MAC
r -t 10.284384756 -s 2 -d 2 -p AODV -e 44 -c 2 -a 0 -i 0 -k MAC
+ -t 10.308000000 -s 2 -d -1 -p ARP -e 80 -c 2 -a 0 -i 0 -k MAC 
- -t 10.308000000 -s 2 -d -1 -p ARP -e 80 -c 2 -a 0 -i 0 -k MAC
h -t 10.308000000 -s 2 -d -1 -p ARP -e 80 -c 2 -a 0 -i 0 -k MAC
r -t 10.308320384 -s 0 -d -1 -p ARP -e 28 -c 2 -a 0 -i 0 -k MAC
r -t 10.308320756 -s 3 -d -1 -p ARP -e 28 -c 2 -a 0 -i 0 -k MAC
r -t 10.308321484 -s 1 -d -1 -p ARP -e 28 -c 2 -a 0 -i 0 -k MAC
+ -t 10.326000000 -s 0 -d -1 -p ARP -e 80 -c 2 -a 0 -i 0 -k MAC 
- -t 10.326000000 -s 0 -d -1 -p ARP -e 80 -c 2 -a 0 -i 0 -k MAC
h -t 10.326000000 -s 0 -d -1 -p ARP -e 80 -c 2 -a 0 -i 0 -k MAC
r -t 10.326320384 -s 2 -d -1 -p ARP -e 28 -c 2 -a 0 -i 0 -k MAC
+ -t 10.368000000 -s 2 -d 0 -p AODV -e 96 -c 2 -a 0 -i 0 -k MAC 
- -t 10.368000000 -s 2 -d 0 -p AODV -e 96 -c 2 -a 0 -i 0 -k MAC
h -t 10.368000000 -s 2 -d 0 -p AODV -e 96 -c 2 -a 0 -i 0 -k MAC
r -t 10.368384384 -s 0 -d 0 -p AODV -e 44 -c 2 -a 0 -i 0 -k MAC
+ -t 10.386000000 -s 0 -d 2 -p tcp -e 92 -c 2 -a 0 -i 0 -k MAC 
- -t 10.386000000 -s 0 -d 2 -p tcp -e 92 -c 2 -a 0 -i 0 -k MAC
h -t 10.386000000 -s 0 -d 2 -p tcp -e 92 -c 2 -a 0 -i 0 -k MAC
r -t 10.386368384 -s 2 -d 2 -p tcp -e 40 -c 2 -a 0 -i 0 -k MAC
+ -t 10.428000000 -s 2 -d 3 -p tcp -e 92 -c 2 -a 0 -i 0 -k MAC 
- -t 10.428000000 -s 2 -d 3 -p tcp -e 92 -c 2 -a 0 -i 0 -k MAC
h -t 10.428000000 -s 2 -d 3 -p tcp -e 92 -c 2 -a 0 -i 0 -k MAC
r -t 10.428368756 -s 3 -d 3 -p tcp -e 40 -c 2 -a 0 -i 0 -k MAC
+ -t 10.464000000 -s 3 -d 1 -p tcp -e 92 -c 2 -a 0 -i 0 -k MAC 
- -t 10.464000000 -s 3 -d 1 -p tcp -e 92 -c 2 -a 0 -i 0 -k MAC
h -t 10.464000000 -s 3 -d 1 -p tcp -e 92 -c 2 -a 0 -i 0 -k MAC
r -t 10.464368814 -s 1 -d 1 -p tcp -e 40 -c 2 -a 0 -i 0 -k MAC
+ -t 10.482000000 -s 1 -d 3 -p ack -e 92 -c 2 -a 0 -i 1 -k MAC 
- -t 10.482000000 -s 1 -d 3 -p ack -e 92 -c 2 -a 0 -i 1 -k MAC
h -t 10.482000000 -s 1 -d 3 -p ack -e 92 -c 2 -a 0 -i 1 -k MAC
r -t 10.482368814 -s 3 -d 3 -p ack -e 40 -c 2 -a 0 -i 1 -k MAC
+ -t 10.524000000 -s 3 -d 2 -p ack -e 92 -c 2 -a 0 -i 1 -k MAC 
- -t 10.524000000 -s 3 -d 2 -p ack -e 92 -c 2 -a 0 -i 1 -k MAC
h -t 10.524000000 -s 3 -d 2 -p ack -e 92 -c 2 -a 0 -i 1 -k MAC
r -t 10.524368756 -s 2 -d 2 -p ack -e 40 -c 2 -a 0 -i 1 -k MAC
+ -t 10.548000000 -s 2 -d 0 -p ack -e 92 -c 2 -a 0 -i 1 -k MAC 
- -t 10.548000000 -s 2 -d 0 -p ack -e 92 -c 2 -a 0 -i 1 -k MAC
h -t 10.548000000 -s 2 -d 0 -p ack -e 92 -c 2 -a 0 -i 1 -k MAC
r -t 10.548368384 -s 0 -d 0 -p ack -e 40 -c 2 -a 0 -i 1 -k MAC
+ -t 10.566000000 -s 0 -d 2 -p tcp -e 1092 -c 2 -a 0 -i 2 -k MAC 
- -t 10.566000000 -s 0 -d 2 -p tcp -e 1092 -c 2 -a 0 -i 2 -k MAC
h -t 10.566000000 -s 0 -d 2 -p tcp -e 1092 -c 2 -a 0 -i 2 -k MAC
r -t 10.570368384 -s 2 -d 2 -p tcp -e 1040 -c 2 -a 0 -i 2 -k MAC
+ -t 10.596000000 -s 0 -d 2 -p tcp -e 1092 -c 2 -a 0 -i 3 -k MAC 
- -t 10.596000000 -s 0 -d 2 -p tcp -e 1092 -c 2 -a 0 -i 3 -k MAC
h -t 10.596000000 -s 0 -d 2 -p tcp -e 1092 -c 2 -a 0 -i 3 -k MAC
r -t 10.600368384 -s 2 -d 2 -p tcp -e 1040 -c 2 -a 0 -i 3 -k MAC
+ -t 10.608000000 -s 2 -d 3 -p tcp -e 1092 -c 2 -a 0 -i 2 -k MAC 
- -t 10.608000000 -s 2 -d 3 -p tcp -e 1092 -c 2 -a 0 -i 2 -k MAC
h -t 10.608000000 -s 2 -d 3 -p tcp -e 1092 -c 2 -a 0 -i 2 -k MAC
r -t 10.612368756 -s 3 -d 3 -p tcp -e 1040 -c 2 -a 0 -i 2 -k MAC
+ -t 10.638000000 -s 2 -d 3 -p tcp -e 1092 -c 2 -a 0 -i 3 -k MAC 
- -t 10.638000000 -s 2 -d 3 -p tcp -e 1092 -c 2 -a 0 -i 3 -k MAC
h -t 10.638000000 -s 2 -d 3 -p tcp -e 1092 -c 2 -a 0 -i 3 -k MAC
r -t 10.642368756 -s 3 -d 3 -p tcp -e 1040 -c 2 -a 0 -i 3 -k MAC
+ -t 10.644000000 -s 3 -d 1 -p tcp -e 1092 -c 2 -a 0 -i 2 -k MAC 
- -t 10.644000000 -s 3 -d 1 -p tcp -e 1092 -c 2 -a 0 -i 2 -k MAC
h -t 10.644000000 -s 3 -d 1 -p tcp -e 1092 -c 2 -a 0 -i 2 -k MAC
r -t 10.648368814 -s 1 -d 1 -p tcp -e 1040 -c 2 -a 0 -i 2 -k MAC
+ -t 10.662000000 -s 1 -d 3 -p ack -e 92 -c 2 -a 0 -i 4 -k MAC 
- -t 10.662000000 -s 1 -d 3 -p ack -e 92 -c 2 -a 0 -i 4 -k MAC
h -t 10.662000000 -s 1 -d 3 -p ack -e 92 -c 2 -a 0 -i 4 -k MAC
r -t 10.662368814 -s 3 -d 3 -p ack -e 40 -c 2 -a 0 -i 4 -k MAC
+ -t 10.674000000 -s 3 -d 1 -p tcp -e 1092 -c 2 -a 0 -i 3 -k MAC 
- -t 10.674000000 -s 3 -d 1 -p tcp -e 1092 -c 2 -a 0 -i 3 -k MAC
h -t 10.674000000 -s 3 -d 1 -p tcp -e 1092 -c 2 -a 0 -i 3 -k MAC
r -t 10.678368814 -s 1 -d 1 -p tcp -e 1040 -c 2 -a 0 -i 3 -k MAC
+ -t 10.692000000 -s 1 -d 3 -p ack -e 92 -c 2 -a 0 -i 5 -k MAC 
- -t 10.692000000 -s 1 -d 3 -p ack -e 92 -c 2 -a 0 -i 5 -k MAC
h -t 10.692000000 -s 1 -d 3 -p ack -e 92 -c 2 -a 0 -i 5 -k MAC
r -t 10.692368814 -s 3 -d 3 -p ack -e 40 -c 2 -a 0 -i 5 -k MAC
+ -t 10.704000000 -s 3 -d 2 -p ack -e 92 -c 2 -a 0 -i 4 -k MAC 
- -t 10.704000000 -s 3 -d 2 -p ack -e 92 -c 2 -a 0 -i 4 -k MAC
h -t 10.704000000 -s 3 -d 2 -p ack -e 92 -c 2 -a 0 -i 4 -k MAC
r -t 10.704368756 -s 2 -d 2 -p ack -e 40 -c 2 -a 0 -i 4 -k MAC
+ -t 10.728000000 -s 2 -d 0 -p ack -e 92 -c 2 -a 0 -i 4 -k MAC 
- -t 10.728000000 -s 2 -d 0 -p ack -e 92 -c 2 -a 0 -i 4 -k MAC
h -t 10.728000000 -s 2 -d 0 -p ack -e 92 -c 2 -a 0 -i 4 -k MAC
r -t 10.728368384 -s 0 -d 0 -p ack -e 40 -c 2 -a 0 -i 4 -k MAC
+ -t 10.734000000 -s 3 -d 2 -p ack -e 92 -c 2 -a 0 -i 5 -k MAC 
- -t 10.734000000 -s 3 -d 2 -p ack -e 92 -c 2 -a 0 -i 5 -k MAC
h -t 10.734000000 -s 3 -d 2 -p ack -e 92 -c 2 -a 0 -i 5 -k MAC
r -t 10.734368756 -s 2 -d 2 -p ack -e 40 -c 2 -a 0 -i 5 -k MAC
+ -t 10.746000000 -s 0 -d 2 -p tcp -e 1092 -c 2 -a 0 -i 6 -k MAC 
- -t 10.746000000 -s 0 -d 2 -p tcp -e 1092 -c 2 -a 0 -i 6 -k MAC
h -t 10.746000000 -s 0 -d 2 -p tcp -e 1092 -c 2 -a 0 -i 6 -k MAC
r -t 10.750368384 -s 2 -d 2 -p tcp -e 1040 -c 2 -a 0 -i 6 -k MAC
+ -t 10.758000000 -s 2 -d 0 -p ack -e 92 -c 2 -a 0 -i 5 -k MAC 
- -t 10.758000000 -s 2 -d 0 -p ack -e 92 -c 2 -a 0 -i 5 -k MAC
h -t 10.758000000 -s 2 -d 0 -p ack -e 92 -c 2 -a 0 -i 5 -k MAC
r -t 10.758368384 -s 0 -d 0 -p ack -e 40 -c 2 -a 0 -i 5 -k MAC
+ -t 10.776000000 -s 0 -d 2 -p tcp -e 1092 -c 2 -a 0 -i 7 -k MAC 
- -t 10.776000000 -s 0 -d 2 -p tcp -e 1092 -c 2 -a 0 -i 7 -k MAC
h -t 10.776000000 -s 0 -d 2 -p tcp -e 1092 -c 2 -a 0 -i 7 -k MAC
r -t 10.780368384 -s 2 -d 2 -p tcp -e 1040 -c 2 -a 0 -i 7 -k MAC
+ -t 10.788000000 -s 2 -d 3 -p tcp -e 1092 -c 2 -a 0 -i 6 -k MAC 
- -t 10.788000000 -s 2 -d 3 -p tcp -e 1092 -c 2 -a 0 -i 6 -k MAC
h -t 10.788000000 -s 2 -d 3 -p tcp -e 1092 -c 2 -a 0 -i 6 -k MAC
r -t 10.792368756 -s 3 -d 3 -p tcp -e 1040 -c 2 -a 0 -i 6 -k MAC
+ -t 10.806000000 -s 0 -d 2 -p tcp -e 1092 -c 2 -a 0 -i 8 -k MAC 
- -t 10.806000000 -s 0 -d 2 -p tcp -e 1092 -c 2 -a 0 -i 8 -k MAC
h -t 10.806000000 -s 0 -d 2 -p tcp -e 1092 -c 2 -a 0 -i 8 -k MAC
r -t 10.810368384 -s 2 -d 2 -p tcp -e 1040 -c 2 -a 0 -i 8 -k MAC
+ -t 10.818000000 -s 2 -d 3 -p tcp -e 1092 -c 2 -a 0 -i 7 -k MAC 
- -t 10.818000000 -s 2 -d 3 -p tcp -e 1092 -c 2 -a 0 -i 7 -k MAC
h -t 10.818000000 -s 2 -d 3 -p tcp -e 1092 -c 2 -a 0 -i 7 -k MAC
r -t 10.822368756 -s 3 -d 3 -p tcp -e 1040 -c 2 -a 0 -i 7 -k MAC
+ -t 10.824000000 -s 3 -d 1 -p tcp -e 1092 -c 2 -a 0 -i 6 -k MAC 
- -t 10.824000000 -s 3 -d 1 -p tcp -e 1092 -c 2 -a 0 -i 6 -k MAC
h -t 10.824000000 -s 3 -d 1 -p tcp -e 1092 -c 2 -a 0 -i 6 -k MAC
r -t 10.828368814 -s 1 -d 1 -p tcp -e 1040 -c 2 -a 0 -i 6 -k MAC
+ -t 10.842000000 -s 1 -d 3 -p ack -e 92 -c 2 -a 0 -i 9 -k MAC 
- -t 10.842000000 -s 1 -d 3 -p ack -e 92 -c 2 -a 0 -i 9 -k MAC
h -t 10.842000000 -s 1 -d 3 -p ack -e 92 -c 2 -a 0 -i 9 -k MAC
r -t 10.842368814 -s 3 -d 3 -p ack -e 40 -c 2 -a 0 -i 9 -k MAC
+ -t 10.848000000 -s 2 -d 3 -p tcp -e 1092 -c 2 -a 0 -i 8 -k MAC 
- -t 10.848000000 -s 2 -d 3 -p tcp -e 1092 -c 2 -a 0 -i 8 -k MAC
h -t 10.848000000 -s 2 -d 3 -p tcp -e 1092 -c 2 -a 0 -i 8 -k MAC
r -t 10.852368756 -s 3 -d 3 -p tcp -e 1040 -c 2 -a 0 -i 8 -k MAC
+ -t 10.854000000 -s 3 -d 1 -p tcp -e 1092 -c 2 -a 0 -i 7 -k MAC 
- -t 10.854000000 -s 3 -d 1 -p tcp -e 1092 -c 2 -a 0 -i 7 -k MAC
h -t 10.854000000 -s 3 -d 1 -p tcp -e 1092 -c 2 -a 0 -i 7 -k MAC
r -t 10.858368814 -s 1 -d 1 -p tcp -e 1040 -c 2 -a 0 -i 7 -k MAC
+ -t 10.872000000 -s 1 -d 3 -p ack -e 92 -c 2 -a 0 -i 10 -k MAC 
- -t 10.872000000 -s 1 -d 3 -p ack -e 92 -c 2 -a 0 -i 10 -k MAC
h -t 10.872000000 -s 1 -d 3 -p ack -e 92 -c 2 -a 0 -i 10 -k MAC
r -t 10.872368814 -s 3 -d 3 -p ack -e 40 -c 2 -a 0 -i 10 -k MAC
+ -t 10.884000000 -s 3 -d 2 -p ack -e 92 -c 2 -a 0 -i 9 -k MAC 
- -t 10.884000000 -s 3 -d 2 -p ack -e 92 -c 2 -a 0 -i 9 -k MAC
h -t 10.884000000 -s 3 -d 2 -p ack -e 92 -c 2 -a 0 -i 9 -k MAC
r -t 10.884368756 -s 2 -d 2 -p ack -e 40 -c 2 -a 0 -i 9 -k MAC
+ -t 10.908000000 -s 2 -d 0 -p ack -e 92 -c 2 -a 0 -i 9 -k MAC 
- -t 10.908000000 -s 2 -d 0 -p ack -e 92 -c 2 -a 0 -i 9 -k MAC
h -t 10.908000000 -s 2 -d 0 -p ack -e 92 -c 2 -a 0 -i 9 -k MAC
r -t 10.908368384 -s 0 -d 0 -p ack -e 40 -c 2 -a 0 -i 9 -k MAC
+ -t 10.914000000 -s 3 -d 1 -p tcp -e 1092 -c 2 -a 0 -i 8 -k MAC 
- -t 10.914000000 -s 3 -d 1 -p tcp -e 1092 -c 2 -a 0 -i 8 -k MAC
h -t 10.914000000 -s 3 -d 1 -p tcp -e 1092 -c 2 -a 0 -i 8 -k MAC
r -t 10.918368814 -s 1 -d 1 -p tcp -e 1040 -c 2 -a 0 -i 8 -k MAC
+ -t 10.932000000 -s 1 -d 3 -p ack -e 92 -c 2 -a 0 -i 11 -k MAC 
- -t 10.932000000 -s 1 -d 3 -p ack -e 92 -c 2 -a 0 -i 11 -k MAC
h -t 10.932000000 -s 1 -d 3 -p ack -e 92 -c 2 -a 0 -i 11 -k MAC
r -t 10.932368814 -s 3 -d 3 -p ack -e 40 -c 2 -a 0 -i 11 -k MAC
+ -t 10.944000000 -s 3 -d 2 -p ack -e 92 -c 2 -a 0 -i 10 -k MAC 
- -t 10.944000000 -s 3 -d 2 -p ack -e 92 -c 2 -a 0 -i 10 -k MAC
h -t 10.944000000 -s 3 -d 2 -p ack -e 92 -c 2 -a 0 -i 10 -k MAC
r -t 10.944368756 -s 2 -d 2 -p ack -e 40 -c 2 -a 0 -i 10 -k MAC
+ -t 10.968000000 -s 2 -d 0 -p ack -e 92 -c 2 -a 0 -i 10 -k MAC 
- -t 10.968000000 -s 2 -d 0 -p ack -e 92 -c 2 -a 0 -i 10 -k MAC
h -t 10.968000000 -s 2 -d 0 -p ack -e 92 -c 2 -a 0 -i 10 -k MAC
r -t 10.968368384 -s 0 -d 0 -p ack -e 40 -c 2 -a 0 -i 10 -k MAC
+ -t 10.974000000 -s 3 -d 2 -p ack -e 92 -c 2 -a 0 -i 11 -k MAC 
- -t 10.974000000 -s 3 -d 2 -p ack -e 92 -c 2 -a 0 -i 11 -k MAC
h -t 10.974000000 -s 3 -d 2 -p ack -e 92 -c 2 -a 0 -i 11 -k MAC
r -t 10.974368756 -s 2 -d 2 -p ack -e 40 -c 2 -a 0 -i 11 -k MAC
+ -t 10.998000000 -s 2 -d 0 -p ack -e 92 -c 2 -a 0 -i 11 -k MAC 
- -t 10.998000000 -s 2 -d 0 -p ack -e 92 -c 2 -a 0 -i 11 -k MAC
h -t 10.998000000 -s 2 -d 0 -p ack -e 92 -c 2 -a 0 -i 11 -k MAC
r -t 10.998368384 -s 0 -d 0 -p ack -e 40 -c 2 -a 0 -i 11 -k MAC
+ -t 11.016000000 -s 0 -d 2 -p tcp -e 1092 -c 2 -a 0 -i 12 -k MAC 
- -t 11.016000000 -s 0 -d 2 -p tcp -e 1092 -c 2 -a 0 -i 12 -k MAC
h -t 11.016000000 -s 0 -d 2 -p tcp -e 1092 -c 2 -a 0 -i 12 -k MAC
r -t 11.020368384 -s 2 -d 2 -p tcp -e 1040 -c 2 -a 0 -i 12 -k MAC
+ -t 11.046000000 -s 0 -d 2 -p tcp -e 1092 -c 2 -a 0 -i 13 -k MAC 
- -t 11.046000000 -s 0 -d 2 -p tcp -e 1092 -c 2 -a 0 -i 13 -k MAC
h -t 11.046000000 -s 0 -d 2 -p tcp -e 1092 -c 2 -a 0 -i 13 -k MAC
r -t 11.050368384 -s 2 -d 2 -p tcp -e 1040 -c 2 -a 0 -i 13 -k MAC
+ -t 11.058000000 -s 2 -d 3 -p tcp -e 1092 -c 2 -a 0 -i 12 -k MAC 
- -t 11.058000000 -s 2 -d 3 -p tcp -e 1092 -c 2 -a 0 -i 12 -k MAC
h -t 11.058000000 -s 2 -d 3 -p tcp -e 1092 -c 2 -a 0 -i 12 -k MAC
r -t 11.062368756 -s 3 -d 3 -p tcp -e 1040 -c 2 -a 0 -i 12 -k MAC
+ -t 11.076000000 -s 0 -d 2 -p tcp -e 1092 -c 2 -a 0 -i 14 -k MAC 
- -t 11.076000000 -s 0 -d 2 -p tcp -e 1092 -c 2 -a 0 -i 14 -k MAC
h -t 11.076000000 -s 0 -d 2 -p tcp -e 1092 -c 2 -a 0 -i 14 -k MAC
r -t 11.080368384 -s 2 -d 2 -p tcp -e 1040 -c 2 -a 0 -i 14 -k MAC
+ -t 11.088000000 -s 2 -d 3 -p tcp -e 1092 -c 2 -a 0 -i 13 -k MAC 
- -t 11.088000000 -s 2 -d 3 -p tcp -e 1092 -c 2 -a 0 -i 13 -k MAC
h -t 11.088000000 -s 2 -d 3 -p tcp -e 1092 -c 2 -a 0 -i 13 -k MAC
r -t 11.092368756 -s 3 -d 3 -p tcp -e 1040 -c 2 -a 0 -i 13 -k MAC
+ -t 11.094000000 -s 3 -d 1 -p tcp -e 1092 -c 2 -a 0 -i 12 -k MAC 
- -t 11.094000000 -s 3 -d 1 -p tcp -e 1092 -c 2 -a 0 -i 12 -k MAC
h -t 11.094000000 -s 3 -d 1 -p tcp -e 1092 -c 2 -a 0 -i 12 -k MAC
r -t 11.098368814 -s 1 -d 1 -p tcp -e 1040 -c 2 -a 0 -i 12 -k MAC
+ -t 11.106000000 -s 0 -d 2 -p tcp -e 1092 -c 2 -a 0 -i 15 -k MAC 
- -t 11.106000000 -s 0 -d 2 -p tcp -e 1092 -c 2 -a 0 -i 15 -k MAC
h -t 11.106000000 -s 0 -d 2 -p tcp -e 1092 -c 2 -a 0 -i 15 -k MAC
r -t 11.110368384 -s 2 -d 2 -p tcp -e 1040 -c 2 -a 0 -i 15 -k MAC
+ -t 11.112000000 -s 1 -d 3 -p ack -e 92 -c 2 -a 0 -i 17 -k MAC 
- -t 11.112000000 -s 1 -d 3 -p ack -e 92 -c 2 -a 0 -i 17 -k MAC
h -t 11.112000000 -s 1 -d 3 -p ack -e 92 -c 2 -a 0 -i 17 -k MAC
r -t 11.112368814 -s 3 -d 3 -p ack -e 40 -c 2 -a 0 -i 17 -k MAC
+ -t 11.118000000 -s 2 -d 3 -p tcp -e 1092 -c 2 -a 0 -i 14 -k MAC 
- -t 11.118000000 -s 2 -d 3 -p tcp -e 1092 -c 2 -a 0 -i 14 -k MAC
h -t 11.118000000 -s 2 -d 3 -p tcp -e 1092 -c 2 -a 0 -i 14 -k MAC
r -t 11.122368756 -s 3 -d 3 -p tcp -e 1040 -c 2 -a 0 -i 14 -k MAC
+ -t 11.124000000 -s 3 -d 1 -p tcp -e 1092 -c 2 -a 0 -i 13 -k MAC 
- -t 11.124000000 -s 3 -d 1 -p tcp -e 1092 -c 2 -a 0 -i 13 -k MAC
h -t 11.124000000 -s 3 -d 1 -p tcp -e 1092 -c 2 -a 0 -i 13 -k MAC
r -t 11.128368814 -s 1 -d 1 -p tcp -e 1040 -c 2 -a 0 -i 13 -k MAC
+ -t 11.136000000 -s 0 -d 2 -p tcp -e 1092 -c 2 -a 0 -i 16 -k MAC 
- -t 11.136000000 -s 0 -d 2 -p tcp -e 1092 -c 2 -a 0 -i 16 -k MAC
h -t 11.136000000 -s 0 -d 2 -p tcp -e 1092 -c 2 -a 0 -i 16 -k MAC
r -t 11.140368384 -s 2 -d 2 -p tcp -e 1040 -c 2 -a 0 -i 16 -k MAC
+ -t 11.142000000 -s 1 -d 3 -p ack -e 92 -c 2 -a 0 -i 18 -k MAC 
- -t 11.142000000 -s 1 -d 3 -p ack -e 92 -c 2 -a 0 -i 18 -k MAC
h -t 11.142000000 -s 1 -d 3 -p ack -e 92 -c 2 -a 0 -i 18 -k MAC
r -t 11.142368814 -s 3 -d 3 -p ack -e 40 -c 2 -a 0 -i 18 -k MAC
+ -t 11.148000000 -s 2 -d 3 -p tcp -e 1092 -c 2 -a 0 -i 15 -k MAC 
- -t 11.148000000 -s 2 -d 3 -p tcp -e 1092 -c 2 -a 0 -i 15 -k MAC
h -t 11.148000000 -s 2 -d 3 -p tcp -e 1092 -c 2 -a 0 -i 15 -k MAC
r -t 11.152368756 -s 3 -d 3 -p tcp -e 1040 -c 2 -a 0 -i 15 -k MAC
+ -t 11.154000000 -s 3 -d 2 -p ack -e 92 -c 2 -a 0 -i 17 -k MAC 
- -t 11.154000000 -s 3 -d 2 -p ack -e 92 -c 2 -a 0 -i 17 -k MAC
h -t 11.154000000 -s 3 -d 2 -p ack -e 92 -c 2 -a 0 -i 17 -k MAC
r -t 11.154368756 -s 2 -d 2 -p ack -e 40 -c 2 -a 0 -i 17 -k MAC
+ -t 11.178000000 -s 2 -d 3 -p tcp -e 1092 -c 2 -a 0 -i 16 -k MAC 
- -t 11.178000000 -s 2 -d 3 -p tcp -e 1092 -c 2 -a 0 -i 16 -k MAC
h -t 11.178000000 -s 2 -d 3 -p tcp -e 1092 -c 2 -a 0 -i 16 -k MAC
r -t 11.182368756 -s 3 -d 3 -p tcp -e 1040 -c 2 -a 0 -i 16 -k MAC
+ -t 11.184000000 -s 3 -d 1 -p tcp -e 1092 -c 2 -a 0 -i 14 -k MAC 
- -t 11.184000000 -s 3 -d 1 -p tcp -e 1092 -c 2 -a 0 -i 14 -k MAC
h -t 11.184000000 -s 3 -d 1 -p tcp -e 1092 -c 2 -a 0 -i 14 -k MAC
r -t 11.188368814 -s 1 -d 1 -p tcp -e 1040 -c 2 -a 0 -i 14 -k MAC
+ -t 11.202000000 -s 1 -d 3 -p ack -e 92 -c 2 -a 0 -i 19 -k MAC 
- -t 11.202000000 -s 1 -d 3 -p ack -e 92 -c 2 -a 0 -i 19 -k MAC
h -t 11.202000000 -s 1 -d 3 -p ack -e 92 -c 2 -a 0 -i 19 -k MAC
r -t 11.202368814 -s 3 -d 3 -p ack -e 40 -c 2 -a 0 -i 19 -k MAC
+ -t 11.208000000 -s 2 -d 0 -p ack -e 92 -c 2 -a 0 -i 17 -k MAC 
- -t 11.208000000 -s 2 -d 0 -p ack -e 92 -c 2 -a 0 -i 17 -k MAC
h -t 11.208000000 -s 2 -d 0 -p ack -e 92 -c 2 -a 0 -i 17 -k MAC
r -t 11.208368384 -s 0 -d 0 -p ack -e 40 -c 2 -a 0 -i 17 -k MAC
+ -t 11.214000000 -s 3 -d 2 -p ack -e 92 -c 2 -a 0 -i 18 -k MAC 
- -t 11.214000000 -s 3 -d 2 -p ack -e 92 -c 2 -a 0 -i 18 -k MAC
h -t 11.214000000 -s 3 -d 2 -p ack -e 92 -c 2 -a 0 -i 18 -k MAC
r -t 11.214368756 -s 2 -d 2 -p ack -e 40 -c 2 -a 0 -i 18 -k MAC
+ -t 11.238000000 -s 2 -d 0 -p ack -e 92 -c 2 -a 0 -i 18 -k MAC 
- -t 11.238000000 -s 2 -d 0 -p ack -e 92 -c 2 -a 0 -i 18 -k MAC
h -t 11.238000000 -s 2 -d 0 -p ack -e 92 -c 2 -a 0 -i 18 -k MAC
r -t 11.238368384 -s 0 -d 0 -p ack -e 40 -c 2 -a 0 -i 18 -k MAC
+ -t 11.244000000 -s 3 -d 1 -p tcp -e 1092 -c 2 -a 0 -i 15 -k MAC 
- -t 11.244000000 -s 3 -d 1 -p tcp -e 1092 -c 2 -a 0 -i 15 -k MAC
h -t 11.244000000 -s 3 -d 1 -p tcp -e 1092 -c 2 -a 0 -i 15 -k MAC
r -t 11.248368814 -s 1 -d 1 -p tcp -e 1040 -c 2 -a 0 -i 15 -k MAC
+ -t 11.262000000 -s 1 -d 3 -p ack -e 92 -c 2 -a 0 -i 20 -k MAC 
- -t 11.262000000 -s 1 -d 3 -p ack -e 92 -c 2 -a 0 -i 20 -k MAC
h -t 11.262000000 -s 1 -d 3 -p ack -e 92 -c 2 -a 0 -i 20 -k MAC
r -t 11.262368814 -s 3 -d 3 -p ack -e 40 -c 2 -a 0 -i 20 -k MAC
+ -t 11.274000000 -s 3 -d 1 -p tcp -e 1092 -c 2 -a 0 -i 16 -k MAC 
- -t 11.274000000 -s 3 -d 1 -p tcp -e 1092 -c 2 -a 0 -i 16 -k MAC
h -t 11.274000000 -s 3 -d 1 -p tcp -e 1092 -c 2 -a 0 -i 16 -k MAC
r -t 11.278368814 -s 1 -d 1 -p tcp -e 1040 -c 2 -a 0 -i 16 -k MAC
+ -t 11.292000000 -s 1 -d 3 -p ack -e 92 -c 2 -a 0 -i 21 -k MAC 
- -t 11.292000000 -s 1 -d 3 -p ack -e 92 -c 2 -a 0 -i 21 -k MAC
h -t 11.292000000 -s 1 -d 3 -p ack -e 92 -c 2 -a 0 -i 21 -k MAC
r -t 11.292368814 -s 3 -d 3 -p ack -e 40 -c 2 -a 0 -i 21 -k MAC
+ -t 11.304000000 -s 3 -d 2 -p ack -e 92 -c 2 -a 0 -i 19 -k MAC 
- -t 11.304000000 -s 3 -d 2 -p ack -e 92 -c 2 -a 0 -i 19 -k MAC
h -t 11.304000000 -s 3 -d 2 -p ack -e 92 -c 2 -a 0 -i 19 -k MAC
r -t 11.304368756 -s 2 -d 2 -p ack -e 40 -c 2 -a 0 -i 19 -k MAC
+ -t 11.328000000 -s 2 -d 0 -p ack -e 92 -c 2 -a 0 -i 19 -k MAC 
- -t 11.328000000 -s 2 -d 0 -p ack -e 92 -c 2 -a 0 -i 19 -k MAC
h -t 11.328000000 -s 2 -d 0 -p ack -e 92 -c 2 -a 0 -i 19 -k MAC
r -t 11.328368384 -s 0 -d 0 -p ack -e 40 -c 2 -a 0 -i 19 -k MAC
+ -t 11.334000000 -s 3 -d 2 -p ack -e 92 -c 2 -a 0 -i 20 -k MAC 
- -t 11.334000000 -s 3 -d 2 -p ack -e 92 -c 2 -a 0 -i 20 -k MAC
h -t 11.334000000 -s 3 -d 2 -p ack -e 92 -c 2 -a 0 -i 20 -k MAC
r -t 11.334368756 -s 2 -d 2 -p ack -e 40 -c 2 -a 0 -i 20 -k MAC
+ -t 11.358000000 -s 2 -d 0 -p ack -e 92 -c 2 -a 0 -i 20 -k MAC 
- -t 11.358000000 -s 2 -d 0 -p ack -e 92 -c 2 -a 0 -i 20 -k MAC
h -t 11.358000000 -s 2 -d 0 -p ack -e 92 -c 2 -a 0 -i 20 -k MAC
r -t 11.358368384 -s 0 -d 0 -p ack -e 40 -c 2 -a 0 -i 20 -k MAC
+ -t 11.364000000 -s 3 -d 2 -p ack -e 92 -c 2 -a 0 -i 21 -k MAC 
- -t 11.364000000 -s 3 -d 2 -p ack -e 92 -c 2 -a 0 -i 21 -k MAC
h -t 11.364000000 -s 3 -d 2 -p ack -e 92 -c 2 -a 0 -i 21 -k MAC
r -t 11.364368756 -s 2 -d 2 -p ack -e 40 -c 2 -a 0 -i 21 -k MAC
+ -t 11.388000000 -s 2 -d 0 -p ack -e 92 -c 2 -a 0 -i 21 -k MAC 
- -t 11.388000000 -s 2 -d 0 -p ack -e 92 -c 2 -a 0 -i 21 -k MAC
h -t 11.388000000 -s 2 -d 0 -p ack -e 92 -c 2 -a 0 -i 21 -k MAC
r -t 11.388368384 -s 0 -d 0 -p ack -e 40 -c 2 -a 0 -i 21 -k MAC
+ -t 12.036000000 -s 0 -d 2 -p tcp -e 1092 -c 2 -a 0 -i 22 -k MAC 
- -t 12.036000000 -s 0 -d 2 -p tcp -e 1092 -c 2 -a 0 -i 22 -k MAC
h -t 12.036000000 -s 0 -d 2 -p tcp -e 1092 -c 2 -a 0 -i 22 -k MAC
r -t 12.040368384 -s 2 -d 2 -p tcp -e 1040 -c 2 -a 0 -i 22 -k MAC
+ -t 12.066000000 -s 0 -d 2 -p tcp -e 1092 -c 2 -a 0 -i 23 -k MAC 
- -t 12.066000000 -s 0 -d 2 -p tcp -e 1092 -c 2 -a 0 -i 23 -k MAC
h -t 12.066000000 -s 0 -d 2 -p tcp -e 1092 -c 2 -a 0 -i 23 -k MAC
r -t 12.070368384 -s 2 -d 2 -p tcp -e 1040 -c 2 -a 0 -i 23 -k MAC
+ -t 12.078000000 -s 2 -d 3 -p tcp -e 1092 -c 2 -a 0 -i 22 -k MAC 
- -t 12.078000000 -s 2 -d 3 -p tcp -e 1092 -c 2 -a 0 -i 22 -k MAC
h -t 12.078000000 -s 2 -d 3 -p tcp -e 1092 -c 2 -a 0 -i 22 -k MAC
r -t 12.082368756 -s 3 -d 3 -p tcp -e 1040 -c 2 -a 0 -i 22 -k MAC
+ -t 12.096000000 -s 0 -d 2 -p tcp -e 1092 -c 2 -a 0 -i 24 -k MAC 
- -t 12.096000000 -s 0 -d 2 -p tcp -e 1092 -c 2 -a 0 -i 24 -k MAC
h -t 12.096000000 -s 0 -d 2 -p tcp -e 1092 -c 2 -a 0 -i 24 -k MAC
r -t 12.100368384 -s 2 -d 2 -p tcp -e 1040 -c 2 -a 0 -i 24 -k MAC
+ -t 12.108000000 -s 2 -d 3 -p tcp -e 1092 -c 2 -a 0 -i 23 -k MAC 
- -t 12.108000000 -s 2 -d 3 -p tcp -e 1092 -c 2 -a 0 -i 23 -k MAC
h -t 12.108000000 -s 2 -d 3 -p tcp -e 1092 -c 2 -a 0 -i 23 -k MAC
r -t 12.112368756 -s 3 -d 3 -p tcp -e 1040 -c 2 -a 0 -i 23 -k MAC
+ -t 12.114000000 -s 3 -d 1 -p tcp -e 1092 -c 2 -a 0 -i 22 -k MAC 
- -t 12.114000000 -s 3 -d 1 -p tcp -e 1092 -c 2 -a 0 -i 22 -k MAC
h -t 12.114000000 -s 3 -d 1 -p tcp -e 1092 -c 2 -a 0 -i 22 -k MAC
r -t 12.118368814 -s 1 -d 1 -p tcp -e 1040 -c 2 -a 0 -i 22 -k MAC
+ -t 12.126000000 -s 0 -d 2 -p tcp -e 1092 -c 2 -a 0 -i 25 -k MAC 
- -t 12.126000000 -s 0 -d 2 -p tcp -e 1092 -c 2 -a 0 -i 25 -k MAC
h -t 12.126000000 -s 0 -d 2 -p tcp -e 1092 -c 2 -a 0 -i 25 -k MAC
r -t 12.130368384 -s 2 -d 2 -p tcp -e 1040 -c 2 -a 0 -i 25 -k MAC
+ -t 12.132000000 -s 1 -d 3 -p ack -e 92 -c 2 -a 0 -i 27 -k MAC 
- -t 12.132000000 -s 1 -d 3 -p ack -e 92 -c 2 -a 0 -i 27 -k MAC
h -t 12.132000000 -s 1 -d 3 -p ack -e 92 -c 2 -a 0 -i 27 -k MAC
r -t 12.132368814 -s 3 -d 3 -p ack -e 40 -c 2 -a 0 -i 27 -k MAC
+ -t 12.138000000 -s 2 -d 3 -p tcp -e 1092 -c 2 -a 0 -i 24 -k MAC 
- -t 12.138000000 -s 2 -d 3 -p tcp -e 1092 -c 2 -a 0 -i 24 -k MAC
h -t 12.138000000 -s 2 -d 3 -p tcp -e 1092 -c 2 -a 0 -i 24 -k MAC
r -t 12.142368756 -s 3 -d 3 -p tcp -e 1040 -c 2 -a 0 -i 24 -k MAC
+ -t 12.144000000 -s 3 -d 1 -p tcp -e 1092 -c 2 -a 0 -i 23 -k MAC 
- -t 12.144000000 -s 3 -d 1 -p tcp -e 1092 -c 2 -a 0 -i 23 -k MAC
h -t 12.144000000 -s 3 -d 1 -p tcp -e 1092 -c 2 -a 0 -i 23 -k MAC
r -t 12.148368814 -s 1 -d 1 -p tcp -e 1040 -c 2 -a 0 -i 23 -k MAC
+ -t 12.156000000 -s 0 -d 2 -p tcp -e 1092 -c 2 -a 0 -i 26 -k MAC 
- -t 12.156000000 -s 0 -d 2 -p tcp -e 1092 -c 2 -a 0 -i 26 -k MAC
h -t 12.156000000 -s 0 -d 2 -p tcp -e 1092 -c 2 -a 0 -i 26 -k MAC
r -t 12.160368384 -s 2 -d 2 -p tcp -e 1040 -c 2 -a 0 -i 26 -k MAC
+ -t 12.162000000 -s 1 -d 3 -p ack -e 92 -c 2 -a 0 -i 28 -k MAC 
- -t 12.162000000 -s 1 -d 3 -p ack -e 92 -c 2 -a 0 -i 28 -k MAC
h -t 12.162000000 -s 1 -d 3 -p ack -e 92 -c 2 -a 0 -i 28 -k MAC
r -t 12.162368814 -s 3 -d 3 -p ack -e 40 -c 2 -a 0 -i 28 -k MAC
+ -t 12.168000000 -s 2 -d 3 -p tcp -e 1092 -c 2 -a 0 -i 25 -k MAC 
- -t 12.168000000 -s 2 -d 3 -p tcp -e 1092 -c 2 -a 0 -i 25 -k MAC
h -t 12.168000000 -s 2 -d 3 -p tcp -e 1092 -c 2 -a 0 -i 25 -k MAC
r -t 12.172368756 -s 3 -d 3 -p tcp -e 1040 -c 2 -a 0 -i 25 -k MAC
+ -t 12.174000000 -s 3 -d 2 -p ack -e 92 -c 2 -a 0 -i 27 -k MAC 
- -t 12.174000000 -s 3 -d 2 -p ack -e 92 -c 2 -a 0 -i 27 -k MAC
h -t 12.174000000 -s 3 -d 2 -p ack -e 92 -c 2 -a 0 -i 27 -k MAC
r -t 12.174368756 -s 2 -d 2 -p ack -e 40 -c 2 -a 0 -i 27 -k MAC
+ -t 12.198000000 -s 2 -d 3 -p tcp -e 1092 -c 2 -a 0 -i 26 -k MAC 
- -t 12.198000000 -s 2 -d 3 -p tcp -e 1092 -c 2 -a 0 -i 26 -k MAC
h -t 12.198000000 -s 2 -d 3 -p tcp -e 1092 -c 2 -a 0 -i 26 -k MAC
r -t 12.202368756 -s 3 -d 3 -p tcp -e 1040 -c 2 -a 0 -i 26 -k MAC
+ -t 12.204000000 -s 3 -d 1 -p tcp -e 1092 -c 2 -a 0 -i 24 -k MAC 
- -t 12.204000000 -s 3 -d 1 -p tcp -e 1092 -c 2 -a 0 -i 24 -k MAC
h -t 12.204000000 -s 3 -d 1 -p tcp -e 1092 -c 2 -a 0 -i 24 -k MAC
r -t 12.208368814 -s 1 -d 1 -p tcp -e 1040 -c 2 -a 0 -i 24 -k MAC
+ -t 12.222000000 -s 1 -d 3 -p ack -e 92 -c 2 -a 0 -i 29 -k MAC 
- -t 12.222000000 -s 1 -d 3 -p ack -e 92 -c 2 -a 0 -i 29 -k MAC
h -t 12.222000000 -s 1 -d 3 -p ack -e 92 -c 2 -a 0 -i 29 -k MAC
r -t 12.222368814 -s 3 -d 3 -p ack -e 40 -c 2 -a 0 -i 29 -k MAC
+ -t 12.228000000 -s 2 -d 0 -p ack -e 92 -c 2 -a 0 -i 27 -k MAC 
- -t 12.228000000 -s 2 -d 0 -p ack -e 92 -c 2 -a 0 -i 27 -k MAC
h -t 12.228000000 -s 2 -d 0 -p ack -e 92 -c 2 -a 0 -i 27 -k MAC
r -t 12.228368384 -s 0 -d 0 -p ack -e 40 -c 2 -a 0 -i 27 -k MAC
+ -t 12.234000000 -s 3 -d 2 -p ack -e 92 -c 2 -a 0 -i 28 -k MAC 
- -t 12.234000000 -s 3 -d 2 -p ack -e 92 -c 2 -a 0 -i 28 -k MAC
h -t 12.234000000 -s 3 -d 2 -p ack -e 92 -c 2 -a 0 -i 28 -k MAC
r -t 12.234368756 -s 2 -d 2 -p ack -e 40 -c 2 -a 0 -i 28 -k MAC
+ -t 12.258000000 -s 2 -d 0 -p ack -e 92 -c 2 -a 0 -i 28 -k MAC 
- -t 12.258000000 -s 2 -d 0 -p ack -e 92 -c 2 -a 0 -i 28 -k MAC
h -t 12.258000000 -s 2 -d 0 -p ack -e 92 -c 2 -a 0 -i 28 -k MAC
r -t 12.258368384 -s 0 -d 0 -p ack -e 40 -c 2 -a 0 -i 28 -k MAC
+ -t 12.264000000 -s 3 -d 1 -p tcp -e 1092 -c 2 -a 0 -i 25 -k MAC 
- -t 12.264000000 -s 3 -d 1 -p tcp -e 1092 -c 2 -a 0 -i 25 -k MAC
h -t 12.264000000 -s 3 -d 1 -p tcp -e 1092 -c 2 -a 0 -i 25 -k MAC
r -t 12.268368814 -s 1 -d 1 -p tcp -e 1040 -c 2 -a 0 -i 25 -k MAC
+ -t 12.282000000 -s 1 -d 3 -p ack -e 92 -c 2 -a 0 -i 30 -k MAC 
- -t 12.282000000 -s 1 -d 3 -p ack -e 92 -c 2 -a 0 -i 30 -k MAC
h -t 12.282000000 -s 1 -d 3 -p ack -e 92 -c 2 -a 0 -i 30 -k MAC
r -t 12.282368814 -s 3 -d 3 -p ack -e 40 -c 2 -a 0 -i 30 -k MAC
+ -t 12.294000000 -s 3 -d 1 -p tcp -e 1092 -c 2 -a 0 -i 26 -k MAC 
- -t 12.294000000 -s 3 -d 1 -p tcp -e 1092 -c 2 -a 0 -i 26 -k MAC
h -t 12.294000000 -s 3 -d 1 -p tcp -e 1092 -c 2 -a 0 -i 26 -k MAC
r -t 12.298368814 -s 1 -d 1 -p tcp -e 1040 -c 2 -a 0 -i 26 -k MAC
+ -t 12.312000000 -s 1 -d 3 -p ack -e 92 -c 2 -a 0 -i 31 -k MAC 
- -t 12.312000000 -s 1 -d 3 -p ack -e 92 -c 2 -a 0 -i 31 -k MAC
h -t 12.312000000 -s 1 -d 3 -p ack -e 92 -c 2 -a 0 -i 31 -k MAC
r -t 12.312368814 -s 3 -d 3 -p ack -e 40 -c 2 -a 0 -i 31 -k MAC
+ -t 12.324000000 -s 3 -d 2 -p ack -e 92 -c 2 -a 0 -i 29 -k MAC 
- -t 12.324000000 -s 3 -d 2 -p ack -e 92 -c 2 -a 0 -i 29 -k MAC
h -t 12.324000000 -s 3 -d 2 -p ack -e 92 -c 2 -a 0 -i 29 -k MAC
r -t 12.324368756 -s 2 -d 2 -p ack -e 40 -c 2 -a 0 -i 29 -k MAC
+ -t 12.348000000 -s 2 -d 0 -p ack -e 92 -c 2 -a 0 -i 29 -k MAC 
- -t 12.348000000 -s 2 -d 0 -p ack -e 92 -c 2 -a 0 -i 29 -k MAC
h -t 12.348000000 -s 2 -d 0 -p ack -e 92 -c 2 -a 0 -i 29 -k MAC
r -t 12.348368384 -s 0 -d 0 -p ack -e 40 -c 2 -a 0 -i 29 -k MAC
+ -t 12.354000000 -s 3 -d 2 -p ack -e 92 -c 2 -a 0 -i 30 -k MAC 
- -t 12.354000000 -s 3 -d 2 -p ack -e 92 -c 2 -a 0 -i 30 -k MAC
h -t 12.354000000 -s 3 -d 2 -p ack -e 92 -c 2 -a 0 -i 30 -k MAC
r -t 12.354368756 -s 2 -d 2 -p ack -e 40 -c 2 -a 0 -i 30 -k MAC
+ -t 12.378000000 -s 2 -d 0 -p ack -e 92 -c 2 -a 0 -i 30 -k MAC 
- -t 12.378000000 -s 2 -d 0 -p ack -e 92 -c 2 -a 0 -i 30 -k MAC
h -t 12.378000000 -s 2 -d 0 -p ack -e 92 -c 2 -a 0 -i 30 -k MAC
r -t 12.378368384 -s 0 -d 0 -p ack -e 40 -c 2 -a 0 -i 30 -k MAC
+ -t 12.384000000 -s 3 -d 2 -p ack -e 92 -c 2 -a 0 -i 31 -k MAC 
- -t 12.384000000 -s 3 -d 2 -p ack -e 92 -c 2 -a 0 -i 31 -k MAC
h -t 12.384000000 -s 3 -d 2 -p ack -e 92 -c 2 -a 0 -i 31 -k MAC
r -t 12.384368756 -s 2 -d 2 -p ack -e 40 -c 2 -a 0 -i 31 -k MAC
+ -t 12.408000000 -s 2 -d 0 -p ack -e 92 -c 2 -a 0 -i 31 -k MAC 
- -t 12.408000000 -s 2 -d 0 -p ack -e 92 -c 2 -a 0 -i 31 -k MAC
h -t 12.408000000 -s 2 -d 0 -p ack -e 92 -c 2 -a 0 -i 31 -k MAC
r -t 12.408368384 -s 0 -d 0 -p ack -e 40 -c 2 -a 0 -i 31 -k MAC
+ -t 13.026000000 -s 0 -d 2 -p tcp -e 1092 -c 2 -a 0 -i 32 -k MAC 
- -t 13.026000000 -s 0 -d 2 -p tcp -e 1092 -c 2 -a 0 -i 32 -k MAC
h -t 13.026000000 -s 0 -d 2 -p tcp -e 1092 -c 2 -a 0 -i 32 -k MAC
r -t 13.030368384 -s 2 -d 2 -p tcp -e 1040 -c 2 -a 0 -i 32 -k MAC
+ -t 13.056000000 -s 0 -d 2 -p tcp -e 1092 -c 2 -a 0 -i 33 -k MAC 
- -t 13.056000000 -s 0 -d 2 -p tcp -e 1092 -c 2 -a 0 -i 33 -k MAC
h -t 13.056000000 -s 0 -d 2 -p tcp -e 1092 -c 2 -a 0 -i 33 -k MAC
r -t 13.060368384 -s 2 -d 2 -p tcp -e 1040 -c 2 -a 0 -i 33 -k MAC
+ -t 13.068000000 -s 2 -d 3 -p tcp -e 1092 -c 2 -a 0 -i 32 -k MAC 
- -t 13.068000000 -s 2 -d 3 -p tcp -e 1092 -c 2 -a 0 -i 32 -k MAC
h -t 13.068000000 -s 2 -d 3 -p tcp -e 1092 -c 2 -a 0 -i 32 -k MAC
r -t 13.072368756 -s 3 -d 3 -p tcp -e 1040 -c 2 -a 0 -i 32 -k MAC
+ -t 13.086000000 -s 0 -d 2 -p tcp -e 1092 -c 2 -a 0 -i 34 -k MAC 
- -t 13.086000000 -s 0 -d 2 -p tcp -e 1092 -c 2 -a 0 -i 34 -k MAC
h -t 13.086000000 -s 0 -d 2 -p tcp -e 1092 -c 2 -a 0 -i 34 -k MAC